 variables = x,y,rho,p,mach,u,v
 zone t ="039080",i=         121 ,j=          81 ,f=point
    5.0000000000000000E-01   1.6653337105078238E-17   1.0667636772472155E+00   7.8630097586748116E-01   4.4125079290312741E-01   4.4812144617886152E-01   1.0818933720393716E-02
    4.9003684262775926E-01  -8.7332105016644699E-04   1.0482992689900437E+00   7.6905673956549947E-01   5.4546052119717936E-01   5.5071383618532099E-01   4.7960304948510335E-02
    4.7897987240944140E-01  -1.8305859970250892E-03   1.0474512893703030E+00   7.6202136436943846E-01   5.7700054556753899E-01   5.8017116104619137E-01   4.9893000008173913E-02
    4.6673978680092110E-01  -2.8761280327190084E-03   1.0399469484377211E+00   7.5505580576354092E-01   5.8218465745407000E-01   5.8485906981098668E-01   4.9607623230178768E-02
    4.5322765359327022E-01  -4.0141189350038752E-03   1.0345577778609227E+00   7.4949371322545733E-01   5.8530780694413864E-01   5.8741186402473389E-01   4.9096765021554661E-02
    4.3835699154260821E-01  -5.2475236727150161E-03   1.0299352128903558E+00   7.4480082355516863E-01   5.8747470483136255E-01   5.8911901971140290E-01   4.8468056649590016E-02
    4.2204642322179531E-01  -6.5784805345799491E-03   1.0259058251369773E+00   7.4071162934258716E-01   5.8912228591714755E-01   5.9036841272205687E-01   4.7765926831663835E-02
    4.0422272982955132E-01  -8.0082108933045570E-03   1.0222748240750814E+00   7.3703169578709660E-01   5.9043120379864278E-01   5.9132194813637262E-01   4.7013297310293668E-02
    3.8482429063465173E-01  -9.5366967652523536E-03   1.0189263560078647E+00   7.3364269010352701E-01   5.9151187095676627E-01   5.9207782660730213E-01   4.6221104493509926E-02
    3.6380483694597343E-01  -1.1162259397737979E-02   1.0157814291307221E+00   7.3046409688443692E-01   5.9242870168823880E-01   5.9269203429307693E-01   4.5394849413160042E-02
    3.4113742033041827E-01  -1.2881452806977384E-02   1.0127833169219871E+00   7.2743743613709877E-01   5.9322185039386233E-01   5.9319819616272662E-01   4.4538471017546738E-02
    3.1681837052930983E-01  -1.4688795886119543E-02   1.0098935596827756E+00   7.2452246489071315E-01   5.9391733203240749E-01   5.9361780206095749E-01   4.3651631830755162E-02
    2.9087101554976047E-01  -1.6576469045625986E-02   1.0070810256283869E+00   7.2168738335372540E-01   5.9453341323647102E-01   5.9396599508168613E-01   4.2728951901689002E-02
    2.6334888317185356E-01  -1.8533976022705782E-02   1.0043108104468939E+00   7.1889731248522815E-01   5.9508516601600614E-01   5.9425476434187152E-01   4.1759087675105520E-02
    2.3433807923840766E-01  -2.0547787390274456E-02   1.0015418849620488E+00   7.1611102667364324E-01   5.9558577830290982E-01   5.9449361313767346E-01   4.0723864792634998E-02
    2.0395854118660206E-01  -2.2601001293227015E-02   9.9873750037545972E-01   7.1329080637916031E-01   5.9604560192060019E-01   5.9468956958151142E-01   3.9597720041826615E-02
    1.7236390245320765E-01  -2.4673075565092559E-02   9.9586470540910510E-01   7.1040521001059909E-01   5.9649876325379148E-01   5.9487495348082953E-01   3.8349355851953294E-02
    1.3973977801697013E-01  -2.6739699289771917E-02   9.9293723620055507E-01   7.0746651695144369E-01   5.9695605974832311E-01   5.9506518466633773E-01   3.6906444187910420E-02
    1.0630017258898983E-01  -2.8769205197663503E-02   9.8995003845527207E-01   7.0446906559495259E-01   5.9740004665691815E-01   5.9524210278722256E-01   3.5239038479253214E-02
    7.2283083840583573E-02  -3.0732213506073885E-02   9.8687411243571299E-01   7.0138658047121161E-01   5.9784264592774927E-01   5.9541417451678147E-01   3.3329321903593993E-02
    3.7943652984966159E-02  -3.2594849884086938E-02   9.8373178778194670E-01   6.9823982153601005E-01   5.9829091338244156E-01   5.9559185470131559E-01   3.1102734493513407E-02
    3.5468442763978425E-03  -3.4321407896630005E-02   9.8051618212554770E-01   6.9502474936165504E-01   5.9879403757176786E-01   5.9582346582150914E-01   2.8502859446587550E-02
   -3.0640567511576455E-02  -3.5876028861972623E-02   9.7730142734678527E-01   6.9181452808082622E-01   5.9938469180079323E-01   5.9614945571273315E-01   2.5431909301474730E-02
   -6.4358304010767586E-02  -3.7219333457777996E-02   9.7421527024052934E-01   6.8873048160438666E-01   6.0000211063141218E-01   5.9651650490778652E-01   2.1854805829457351E-02
   -9.7359738923218919E-02  -3.8322477245825000E-02   9.7134116385360758E-01   6.8584834094634928E-01   6.0056484063170712E-01   5.9684156195060367E-01   1.7788604222124912E-02
   -1.2941908430564864E-01  -3.9161581636918318E-02   9.6858451172700033E-01   6.8313069378665403E-01   6.0194478561424791E-01   5.9799544850989339E-01   1.3198557838094885E-02
   -1.6033697134624769E-01  -3.9717218202391436E-02   9.6662385838807718E-01   6.8124487050625604E-01   6.0392710008047834E-01   5.9983599139686361E-01   8.0239705304873832E-03
   -1.8994439453022893E-01  -3.9977458687215001E-02   9.6691225463892450E-01   6.8146636486585122E-01   6.0398343444071012E-01   5.9994638924368038E-01   2.9451790995393538E-03
   -2.1810531282223422E-01  -4.0006354835774458E-02   9.6707812462561560E-01   6.8160323914643617E-01   6.0240369015680750E-01   5.9839319812414626E-01  -5.0220153572043873E-05
   -2.4471907958929429E-01  -3.9974453410895838E-02   9.6548079286695221E-01   6.8006534211094549E-01   6.0103222375914567E-01   5.9684797747506502E-01  -1.5479955078536495E-03
   -2.6971938847464721E-01  -3.9874590444480690E-02   9.6291577606177792E-01   6.7754453400793468E-01   5.9996299791076868E-01   5.9546281126170086E-01  -3.6912047361857964E-03
   -2.9307101029651439E-01  -3.9678063487070238E-02   9.5945201422640047E-01   6.7416362308094746E-01   5.9911986080836055E-01   5.9418171873650627E-01  -6.8837906712364482E-03
   -3.1476658666414881E-01  -3.9357554163212037E-02   9.5568790202908427E-01   6.7047118827628793E-01   5.9827388463334741E-01   5.9281709119244985E-01  -1.1015463592637123E-02
   -3.3482332353873773E-01  -3.8907969534316314E-02   9.5124354062434213E-01   6.6617416577078536E-01   5.9774226111045525E-01   5.9165483363249560E-01  -1.5912203283015982E-02
   -3.5327915460436082E-01  -3.8328407793448392E-02   9.4693684847989101E-01   6.6197949480568619E-01   5.9708836847506974E-01   5.9028089783491422E-01  -2.2140184682883850E-02
   -3.7018720675940331E-01  -3.7590252202702776E-02   9.4232281825711761E-01   6.5755534016914341E-01   5.9661814991514539E-01   5.8896980852280656E-01  -2.9198964776307769E-02
   -3.8561599053230544E-01  -3.6733376296611504E-02   9.3793569854459025E-01   6.5334019555904754E-01   5.9564961039076592E-01   5.8702610747083384E-01  -3.7414239963799431E-02
   -3.9963926552869999E-01  -3.5723612448731845E-02   9.3366089333830038E-01   6.4933968262847475E-01   5.9411726722418656E-01   5.8438376126996683E-01  -4.6642035686807019E-02
   -4.1234196016418095E-01  -3.4609656872078377E-02   9.2892655405477575E-01   6.4508205118773121E-01   5.9373512449854382E-01   5.8264275192132575E-01  -5.7034209464366194E-02
   -4.2380666842954223E-01  -3.3369708942865124E-02   9.2547450178072777E-01   6.4197930536876768E-01   5.9230827909808725E-01   5.7959418446104694E-01  -6.9113625256090272E-02
   -4.3412042093025605E-01  -3.2024177628776081E-02   9.2242867806937801E-01   6.3948723906032634E-01   5.8981373860386344E-01   5.7527008374859867E-01  -8.1893533880023892E-02
   -4.4337025212100989E-01  -3.0596200384669779E-02   9.1915002009172220E-01   6.3706929517194810E-01   5.8931448048939084E-01   5.7248372994900942E-01  -9.6211400414381767E-02
   -4.5163893361489871E-01  -2.9092726909801612E-02   9.1615674593840302E-01   6.3507372325901001E-01   5.9185293524279148E-01   5.7193886462473342E-01  -1.1327875651550304E-01
   -4.5900391676264962E-01  -2.7514202750148223E-02   9.1459739975185439E-01   6.3477506038499643E-01   5.9489169915915596E-01   5.7100863904880250E-01  -1.3348664488264425E-01
   -4.6553661443854299E-01  -2.5859418767822891E-02   9.1448389628227289E-01   6.3664541887079429E-01   5.9772229190813875E-01   5.6907575661061860E-01  -1.5610315493474450E-01
   -4.7130993365558427E-01  -2.4154191635160836E-02   9.1555620010511118E-01   6.4036308582587609E-01   6.0223549757089134E-01   5.6760390305471475E-01  -1.8156583976786847E-01
   -4.7638735086591077E-01  -2.2405484957435710E-02   9.1844046847515981E-01   6.4642814568494100E-01   6.0776560011448078E-01   5.6522234336662536E-01  -2.1093380960904018E-01
   -4.8082670978422037E-01  -2.0620793062831363E-02   9.2377303425357238E-01   6.5533151076053908E-01   6.1176659139081180E-01   5.5887190483735993E-01  -2.4363290575657029E-01
   -4.8468059365283839E-01  -1.8808791016003183E-02   9.3099086466541059E-01   6.6637349077930730E-01   6.1187461877197202E-01   5.4557664176244269E-01  -2.7839624251062628E-01
   -4.8799731455682199E-01  -1.6980179016454478E-02   9.4375403289576687E-01   6.8184887988492016E-01   6.0053952715204462E-01   5.1651146188056118E-01  -3.1302685597318675E-01
   -4.9080062295785842E-01  -1.5118471917097837E-02   9.6400176634348611E-01   7.0437377419792269E-01   5.7118992493382603E-01   4.6678510244431021E-01  -3.4033386282709843E-01
   -4.9313093064120506E-01  -1.3251711640443059E-02   9.8905574384795503E-01   7.3217065478351318E-01   5.2837201373691522E-01   4.0404000114408201E-01  -3.5504432269324460E-01
   -4.9503228344691308E-01  -1.1411523539539774E-02   1.0172665263954168E+00   7.6242007257928612E-01   4.7977657277890989E-01   3.3702398224281349E-01  -3.5765828184112797E-01
   -4.9655376348942742E-01  -9.6281745035254537E-03   1.0400345723201405E+00   7.8736273414257929E-01   4.3515121923392325E-01   2.7595789225866407E-01  -3.5289392937979824E-01
   -4.9776002830153865E-01  -7.9307669313492882E-03   1.0725857742019773E+00   8.1918895448589446E-01   3.8293565196099300E-01   2.0377093063750129E-01  -3.3949277199207667E-01
   -4.9856928765940411E-01  -6.2734060423414797E-03   1.1037859805261911E+00   8.5002718422887558E-01   3.1797137228786149E-01   1.3530775603243347E-01  -3.0115640426463131E-01
   -4.9917706497600467E-01  -4.7644601530583940E-03   1.1206694604733398E+00   8.6947567289543315E-01   2.4876651154918597E-01   8.5407727270777681E-02  -2.4478993605904986E-01
   -4.9956979819141323E-01  -3.3735884297146721E-03   1.1360477481079330E+00   8.8672545052187079E-01   1.8639982745800640E-01   4.5759658584811326E-02  -1.8940174497650142E-01
   -4.9980441031418421E-01  -2.1220695875654324E-03   1.1470977470469030E+00   8.9908972547549215E-01   1.2932244043261584E-01   2.0026569080254169E-02  -1.3397968812152289E-01
   -4.9990821208118358E-01  -9.9586207838021890E-04   1.1523577857355631E+00   9.0595286856510648E-01   7.9863874804306914E-02   7.6899394853952091E-03  -8.3432756917177636E-02
   -5.0000000000000000E-01   0.0000000000000000E+00   1.1548078041732457E+00   9.0893598932182296E-01   3.7524192905781441E-02   2.0031599726512404E-03  -3.9339146132587044E-02
   -4.9991485979524747E-01   9.9645628435771094E-04   1.1578133182514074E+00   9.1128675599869324E-01   3.9331598665803581E-03   3.5148822762670384E-04   4.1137163613165365E-03
   -4.9981851117003023E-01   2.1240926738400885E-03   1.1568807607087481E+00   9.1035385722782614E-01   4.8907403390662615E-02   7.2873868788635087E-03   5.0813422024668785E-02
   -4.9961221589816018E-01   3.3832505083684463E-03   1.1525499051005572E+00   9.0591572699974710E-01   9.7766528239165568E-02   2.2296055465170574E-02   1.0010465148189945E-01
   -4.9924999531467762E-01   4.7854018434898733E-03   1.1455439998291497E+00   8.9838330317116388E-01   1.4950347110484496E-01   4.5257995678798860E-02   1.4997305160128294E-01
   -4.9873407958654942E-01   6.3344976264641242E-03   1.1355239265827399E+00   8.8745385606855820E-01   2.0333363389620798E-01   7.6565102304006288E-02   1.9843001591982942E-01
   -4.9800600683621726E-01   8.0359332357429637E-03   1.1200795537753581E+00   8.7159953831194859E-01   2.5636729926426760E-01   1.1839416169029703E-01   2.3996401661606334E-01
   -4.9699911369072858E-01   9.8644476655407199E-03   1.1047006189333752E+00   8.5481596213361244E-01   3.0817670512732481E-01   1.6372694923983466E-01   2.7582094624100090E-01
   -4.9573954496148376E-01   1.1858233121620491E-02   1.0876906671999129E+00   8.3556215415301560E-01   3.6012117811490685E-01   2.1359183624349698E-01   3.0634642999124234E-01
   -4.9412889006995075E-01   1.3981169742626748E-02   1.0666794694581907E+00   8.1312663739357049E-01   4.0554610845330830E-01   2.6714416869533714E-01   3.2272234310684550E-01
   -4.9212334761327159E-01   1.6217828391324150E-02   1.0487571455548048E+00   7.9332205019355484E-01   4.4087930921867835E-01   3.1326723232953974E-01   3.2818059359712470E-01
   -4.8971448921385408E-01   1.8596621470014590E-02   1.0320593610473394E+00   7.7395761353996839E-01   4.7279831181540677E-01   3.5490542693563887E-01   3.2972749591261985E-01
   -4.8684580254658449E-01   2.1110074835898017E-02   1.0149065770817112E+00   7.5384875678823038E-01   5.0280646322833444E-01   3.9519840697524272E-01   3.2665659459560348E-01
   -4.8346204532605580E-01   2.3752358180479459E-02   9.9875087358950387E-01   7.3464999004230025E-01   5.2879344479403245E-01   4.3156383166392343E-01   3.1889521567083273E-01
   -4.7950638291561204E-01   2.6519449574280776E-02   9.8362478289571376E-01   7.1664302875177344E-01   5.4923650699619586E-01   4.6213066366056166E-01   3.0678621073696438E-01
   -4.7491846152307526E-01   2.9408574464730851E-02   9.6961938840671502E-01   7.0000397822682037E-01   5.6414640368476865E-01   4.8652991760816872E-01   2.9145722719333955E-01
   -4.6963323871955209E-01   3.2417412173474228E-02   9.5655298167327296E-01   6.8461111437424993E-01   5.7483703316736201E-01   5.0574805402555623E-01   2.7441409960679647E-01
   -4.6358036841605410E-01   3.5543271487118319E-02   9.4422343513098972E-01   6.7030788594535795E-01   5.8288808130992087E-01   5.2121679995412606E-01   2.5689986149123345E-01
   -4.5668400344532822E-01   3.8782299136515201E-02   9.3241822087948845E-01   6.5689942286517655E-01   5.8956290565087255E-01   5.3420285500353093E-01   2.3967983358215986E-01
   -4.4886294710344504E-01   4.2128731232319236E-02   9.2091189580474975E-01   6.4411795169494268E-01   5.9583870188514387E-01   5.4573907117877019E-01   2.2316489726215483E-01
   -4.4003113513071346E-01   4.5574182710233294E-02   9.0942204197518284E-01   6.3163505751622950E-01   6.0242004670571159E-01   5.5668760372468662E-01   2.0729332196558267E-01
   -4.3009566566942825E-01   4.9098688756166999E-02   8.9758507405475729E-01   6.1927616450182965E-01   6.0765412476614100E-01   5.6606290098999812E-01   1.9031643223962635E-01
   -4.1894953624038439E-01   5.2639702819882617E-02   8.8773088230173514E-01   6.0888572727774881E-01   6.1025474137873748E-01   5.7232675500757990E-01   1.7333019116163537E-01
   -4.0651507365703632E-01   5.6220901888882652E-02   8.7843480792395257E-01   5.9913247094568223E-01   6.1351255254221015E-01   5.7843718740392358E-01   1.5751652379689235E-01
   -3.9268765991710064E-01   5.9769472492036319E-02   8.6877564877223357E-01   5.8933447585080434E-01   6.1716506095389412E-01   5.8456246194638872E-01   1.4146443962338628E-01
   -3.7737949018101213E-01   6.3249670184135784E-02   8.6050988463944966E-01   5.8094998089746896E-01   6.1912997736215425E-01   5.8873920190234519E-01   1.2524750273705829E-01
   -3.6050481604660833E-01   6.6592352188164158E-02   8.5345223506774004E-01   5.7377037214597770E-01   6.2086001072488828E-01   5.9231141884623251E-01   1.0940901059657128E-01
   -3.4199638813431965E-01   6.9763317156822199E-02   8.4697780708927284E-01   5.6732313530867184E-01   6.2188218562772579E-01   5.9495826535791274E-01   9.3189395587087290E-02
   -3.2178746628965771E-01   7.2630221793080374E-02   8.4259573136418520E-01   5.6291688265762141E-01   6.2118765923180563E-01   5.9586371637022673E-01   7.6523731519086535E-02
   -2.9984764380580808E-01   7.5152341472453824E-02   8.4105782420067121E-01   5.6113659010310002E-01   6.1988748210488964E-01   5.9603153673604481E-01   6.0541539999110279E-02
   -2.7616309047700649E-01   7.7240874732554130E-02   8.4058777399828566E-01   5.6056459728346320E-01   6.1909130274013147E-01   5.9652586681538233E-01   4.4604887270079621E-02
   -2.5074904676458792E-01   7.8800945589749927E-02   8.4246061094899938E-01   5.6226749567113643E-01   6.1675415526583677E-01   5.9548634601313988E-01   2.8608986833002149E-02
   -2.2365425477051182E-01   7.9740981623406204E-02   8.4923548847687891E-01   5.6848791628221607E-01   6.1045724628801634E-01   5.9082756225424971E-01   1.2800078882899682E-02
   -1.9496349964351656E-01   7.9988998715157245E-02   8.6103717812465153E-01   5.7942290053460366E-01   6.0457116469842276E-01   5.8680326581782383E-01  -5.9869106564871643E-04
   -1.6479533174640298E-01   7.9670463171914507E-02   8.7298662257056270E-01   5.9069516135017630E-01   6.0358331084897154E-01   5.8736200124796856E-01  -1.0525806518230530E-02
   -1.3329623323005668E-01   7.8877839925149879E-02   8.8226243044069819E-01   5.9958419657006923E-01   6.0499494671409526E-01   5.8981613444413239E-01  -1.8916651281872362E-02
   -1.0064534534243408E-01   7.7608041160318331E-02   8.9011796271675303E-01   6.0712193125191738E-01   6.0555019736868032E-01   5.9112646793774459E-01  -2.6808107677048835E-02
   -6.7052888340186523E-02   7.5869501957974816E-02   8.9763507210932059E-01   6.1433740826613759E-01   6.0488497494660187E-01   5.9110512212633692E-01  -3.4160826625276100E-02
   -3.2755674950368852E-02   7.3681946967822667E-02   9.0485121570200877E-01   6.2130975713112324E-01   6.0390236439736245E-01   5.9067252721366081E-01  -4.1083510580591294E-02
    1.9881667127490399E-03   7.1066211976676591E-02   9.1193301036954977E-01   6.2819046259985767E-01   6.0266523353657375E-01   5.8992366809661057E-01  -4.7563737189775954E-02
    3.6908054908463162E-02   6.8065401025958303E-02   9.1893048870863547E-01   6.3501669129471305E-01   6.0135663511623150E-01   5.8906358315238583E-01  -5.3499409267990329E-02
    7.1728799987129666E-02   6.4733808132171680E-02   9.2567736518763311E-01   6.4163095337022535E-01   6.0012984179701567E-01   5.8823328092875660E-01  -5.8967094244433811E-02
    1.0617806654774076E-01   6.1124063203405507E-02   9.3216516281060513E-01   6.4801751829310816E-01   5.9889700815334568E-01   5.8734483429209561E-01  -6.4071414628393816E-02
    1.3999495359680625E-01   5.7290368977762504E-02   9.3847335878498683E-01   6.5425226074143938E-01   5.9755230320777841E-01   5.8630301362102077E-01  -6.8900630774951149E-02
    1.7293707073564957E-01   5.3283012279360310E-02   9.4473588949665799E-01   6.6045795813424779E-01   5.9609382179011916E-01   5.8513588239487901E-01  -7.3376836885237051E-02
    2.0478980328551022E-01   4.9169644197570944E-02   9.5088655530296118E-01   6.6657010834085917E-01   5.9466728793492085E-01   5.8399099060416515E-01  -7.7484688292466714E-02
    2.3536779888569925E-01   4.5004621539240328E-02   9.5685192399937580E-01   6.7251993979357050E-01   5.9327491097149043E-01   5.8285470241324411E-01  -8.1345466467615674E-02
    2.6451937876279552E-01   4.0838742501984118E-02   9.6274545879485252E-01   6.7841168548768804E-01   5.9180336102505360E-01   5.8162928089141175E-01  -8.4965631263361069E-02
    2.9212800194137623E-01   3.6718217913147277E-02   9.6857533627246450E-01   6.8425749543705949E-01   5.9026486270205858E-01   5.8033195616727906E-01  -8.8360946209397440E-02
    3.1811210308153204E-01   3.2683931858906473E-02   9.7436589742159629E-01   6.9008061769227202E-01   5.8866086303093379E-01   5.7896854149940413E-01  -9.1545259721990374E-02
    3.4242346295772041E-01   2.8770633077618634E-02   9.8018937116195759E-01   6.9595098720862503E-01   5.8697150871848947E-01   5.7752904437665853E-01  -9.4526464585557329E-02
    3.6504456680863795E-01   2.5007096013125837E-02   9.8609561614846908E-01   7.0191607651604648E-01   5.8518456384803985E-01   5.7601201608680441E-01  -9.7285249836164572E-02
    3.8598537768727548E-01   2.1417679309505895E-02   9.9208118996845718E-01   7.0797097954384169E-01   5.8328965342588235E-01   5.7440852104885032E-01  -9.9820304534209162E-02
    4.0527881424182666E-01   1.8019269614233023E-02   9.9817500980950014E-01   7.1414778023086700E-01   5.8122739936998691E-01   5.7266284395151545E-01  -1.0214383446774740E-01
    4.2297684538427216E-01   1.4823306347844204E-02   1.0044886654149843E+00   7.2056068311817500E-01   5.7889000081262532E-01   5.7068313625367861E-01  -1.0424058970157553E-01
    4.3914638115679727E-01   1.1836307734024441E-02   1.0111980337882149E+00   7.2738320620185593E-01   5.7618478488353053E-01   5.6839615570085067E-01  -1.0609689554655045E-01
    4.5386540878809323E-01   9.0605159048096247E-03   1.0184612408639306E+00   7.3474813141569961E-01   5.7320998276919122E-01   5.6590481970208906E-01  -1.0772922765371702E-01
    4.6721950442861870E-01   6.4946313687535076E-03   1.0260581669638176E+00   7.4258561354096986E-01   5.6982065913077473E-01   5.6309905425020224E-01  -1.0910698262149972E-01
    4.7929879724206481E-01   4.1346043869568286E-03   1.0357907525784231E+00   7.5163655968260268E-01   5.6476463221289885E-01   5.5851941376444181E-01  -1.0997430746797000E-01
    4.9019502629097123E-01   1.9724899578722707E-03   1.0386655872152089E+00   7.6037963680082599E-01   5.3458641941748897E-01   5.3072150383745786E-01  -1.0600194868355925E-01
    5.0000000000000000E-01  -1.6653337105078238E-17   1.0623040901289764E+00   7.8226275232613718E-01   4.3639562366880297E-01   4.3884093175574990E-01  -6.1322250082023314E-02
    4.9999999999999989E-01  -9.9985250898964898E-07   1.0667555757254021E+00   7.8629778749972434E-01   4.3949043283221384E-01   4.4633776808028186E-01   1.0642167960326724E-02
    4.9003684262591757E-01  -8.7432085508934985E-04   1.0483936861921712E+00   7.6905473420474912E-01   5.4215072734562675E-01   5.4734766228248444E-01   4.7660062848147271E-02
    4.7897987240256790E-01  -1.8315857497107730E-03   1.0476061299342363E+00   7.6202124358976198E-01   5.7466910615928157E-01   5.7778428874771703E-01   4.9687121267319091E-02
    4.6673978678361505E-01  -2.8771277282473012E-03   1.0400492790735785E+00   7.5505579264523981E-01   5.8046433559651334E-01   5.8310215906034379E-01   4.9458467374450532E-02
    4.5322765355713757E-01  -4.0151185681876192E-03   1.0346680319997716E+00   7.4949372486185251E-01   5.8392912815604980E-01   5.8599701546913163E-01   4.8978483656599799E-02
    4.3835699147528906E-01  -5.2485232381537222E-03   1.0300405766378102E+00   7.4480084222805121E-01   5.8632626837591850E-01   5.8793730593768723E-01   4.8370844133838901E-02
    4.2204642310576385E-01  -6.5794800266937023E-03   1.0260066293063361E+00   7.4071165103766956E-01   5.8814345862502759E-01   5.8935857010375814E-01   4.7684253962816017E-02
    4.0422272964065686E-01  -8.0092103063715992E-03   1.0223703581366625E+00   7.3703171833814785E-01   5.8958102849784844E-01   5.9044291030394569E-01   4.6943451566929500E-02
    3.8482429034037102E-01  -9.5376960934618737E-03   1.0190169280537111E+00   7.3364271219769717E-01   5.9076152956975136E-01   5.9130049576504695E-01   4.6160464019234453E-02
    3.6380483650334716E-01  -1.1163258635262956E-02   1.0158677661867122E+00   7.3046411789650145E-01   5.9175643092073138E-01   5.9199431463291108E-01   4.5341448110509282E-02
    3.4113741968364586E-01  -1.2882451948051632E-02   1.0128658456278270E+00   7.2743745620193234E-01   5.9261025985945825E-01   5.9256249506963454E-01   4.4490776138677066E-02
    3.1681836960698972E-01  -1.4689794925126915E-02   1.0099721608707550E+00   7.2452248467200631E-01   5.9335195600879553E-01   5.9302964075567677E-01   4.3608420547946121E-02
    2.9087101426177087E-01  -1.6577467977203393E-02   1.0071554990098348E+00   7.2168740345366211E-01   5.9400181248050388E-01   5.9341296741595839E-01   4.2689215811279581E-02
    2.6334888140588442E-01  -1.8534974841861611E-02   1.0043812062860531E+00   7.1889733289535440E-01   5.9457629371360121E-01   5.9372580070628500E-01   4.1721969949416425E-02
    2.3433807685616448E-01  -2.0548786092523193E-02   1.0016083545619603E+00   7.1611104707492612E-01   5.9508975098108408E-01   5.9397879192565295E-01   4.0688649688424221E-02
    2.0395853802027814E-01  -2.2601999839214865E-02   9.9880021069017211E-01   7.1329082704117641E-01   5.9555507037896427E-01   5.9418150705522677E-01   3.9563937625983904E-02
    1.7236389830011412E-01  -2.4674073947014510E-02   9.9592327462609220E-01   7.1040523249310028E-01   5.9601021221425887E-01   5.9437026208910226E-01   3.8316872182734586E-02
    1.3973977263550386E-01  -2.6740697500993876E-02   9.9299101855949767E-01   7.0746654180317514E-01   5.9646550920735619E-01   5.9456009431567047E-01   3.6875177319103190E-02
    1.0630016569401673E-01  -2.8770203232360781E-02   9.8999851072476674E-01   7.0446909226457377E-01   5.9690163334776458E-01   5.9473093909086483E-01   3.5208835291095940E-02
    7.2283075098716010E-02  -3.0733211359033796E-02   9.8691690046541369E-01   7.0138661019537418E-01   5.9733243239193279E-01   5.9489314780182845E-01   3.3300219158083934E-02
    3.7943642011158518E-02  -3.2595847508936661E-02   9.8376883252808889E-01   6.9823985535941280E-01   5.9776797971068829E-01   5.9506008831871304E-01   3.1075032917748571E-02
    3.5468306274461514E-03  -3.4322405262495109E-02   9.8054691589673015E-01   6.9502478754834907E-01   5.9826689238606190E-01   5.9528962203399904E-01   2.8477368028293749E-02
   -3.0640584341884824E-02  -3.5877025957970855E-02   9.7732603132141049E-01   6.9181457162005899E-01   5.9886656350280065E-01   5.9562664531279130E-01   2.5409633155732119E-02
   -6.4358324594459559E-02  -3.7220330246190071E-02   9.7423627048577632E-01   6.8873053064448397E-01   5.9950484870822085E-01   5.9601572971257666E-01   2.1836454281898624E-02
   -9.7359763902196472E-02  -3.8323473646405287E-02   9.7135972291176487E-01   6.8584839420215549E-01   6.0012397476217783E-01   5.9639775917421056E-01   1.7775253193298774E-02
   -1.2941911440122017E-01  -3.9162577625762744E-02   9.6858982627564438E-01   6.8313074730620538E-01   6.0171074101297295E-01   5.9776134225182831E-01   1.3192709829895453E-02
   -1.6033700735520207E-01  -3.9718213654559228E-02   9.6661662316806274E-01   6.8124493245568418E-01   6.0392423661293793E-01   5.9983542456639438E-01   8.0235950382048157E-03
   -1.8994443734042166E-01  -3.9978453540018742E-02   9.6691673181147153E-01   6.8146641937143382E-01   6.0389162543202302E-01   5.9985382924424779E-01   2.9453292170214850E-03
   -2.1810536340519410E-01  -4.0007348910107557E-02   9.6708501483302511E-01   6.8160327510780416E-01   6.0199450681890787E-01   5.9798462646707029E-01  -4.9908510440251736E-05
   -2.4471913901830084E-01  -3.9975446564787631E-02   9.6548132635982742E-01   6.8006538524297622E-01   6.0032843864088226E-01   5.9614894604737578E-01  -1.5458942125660790E-03
   -2.6971945791972723E-01  -3.9875582449082368E-02   9.6291655519421693E-01   6.7754459529874089E-01   5.9900135378733599E-01   5.9450817063286665E-01  -3.6848832349152746E-03
   -2.9307109103153745E-01  -3.9679054055576389E-02   9.5945052253822938E-01   6.7416370599652808E-01   5.9791574907690637E-01   5.9298803444723791E-01  -6.8694521788988305E-03
   -3.1476668007676323E-01  -3.9358542977955477E-02   9.5568703412114386E-01   6.7047129179184695E-01   5.9685149690021777E-01   5.9140800173258734E-01  -1.0988726764532140E-02
   -3.3482343113111557E-01  -3.8908956196902683E-02   9.5124104815116406E-01   6.6617429857966581E-01   5.9613296753220379E-01   5.9006277621236869E-01  -1.5868845992874362E-02
   -3.5327927799752851E-01  -3.8329391815533284E-02   9.4693963804086456E-01   6.6197965727370700E-01   5.9530912055256402E-01   5.8852116352653494E-01  -2.2073492678556027E-02
   -3.7018734769721517E-01  -3.7591232997833693E-02   9.4233139324803417E-01   6.5755553818267465E-01   5.9467011860149421E-01   5.8704420037305649E-01  -2.9102841065258209E-02
   -3.8561615087844597E-01  -3.6734353137499301E-02   9.3795782874429301E-01   6.5334044012625425E-01   5.9352324075421570E-01   5.8492378649443133E-01  -3.7279290825052942E-02
   -3.9963944726310735E-01  -3.5724584442573225E-02   9.3367891979610262E-01   6.4933996987854325E-01   5.9186172370519963E-01   5.8215973515932695E-01  -4.6464003207577917E-02
   -4.1234216539343749E-01  -3.4610623002436149E-02   9.2893258055366856E-01   6.4508239248831334E-01   5.9139469809248291E-01   5.8034437324883137E-01  -5.6808650680444252E-02
   -4.2380689935547222E-01  -3.3370667945753309E-02   9.2549379873878623E-01   6.4197970145740557E-01   5.8997508772183227E-01   5.7730518185231716E-01  -6.8841104413990994E-02
   -4.3412067984356567E-01  -3.2025128006351759E-02   9.2243892311532538E-01   6.3948767527681161E-01   5.8801729214991849E-01   5.7351419070231680E-01  -8.1649038346934724E-02
   -4.4337054138631499E-01  -3.0597140391124239E-02   9.1912550964538364E-01   6.3706987084265443E-01   5.8866296507343074E-01   5.7185721270314727E-01  -9.6115301682018137E-02
   -4.5163925562835061E-01  -2.9093654479828854E-02   9.1606929265666004E-01   6.3507452963099897E-01   5.9278948641332141E-01   5.7286873634618551E-01  -1.1347813751641599E-01
   -4.5900427390678444E-01  -2.7515115458052287E-02   9.1440791719865644E-01   6.3477609195787166E-01   5.9815022108384897E-01   5.7419028584486964E-01  -1.3425762761810520E-01
   -4.6553700905969592E-01  -2.5860313862867620E-02   9.1411005182475380E-01   6.3664668272633862E-01   6.0416387798654692E-01   5.7531750402439230E-01  -1.5785209284819141E-01
   -4.7131036797044923E-01  -2.4155065938305863E-02   9.1497381141627820E-01   6.4036464967723861E-01   6.1235070478016917E-01   5.7730872998654215E-01  -1.8471555573520207E-01
   -4.7638782688482972E-01  -2.2406334848980584E-02   9.1775977442694490E-01   6.4643014370661633E-01   6.2150800445127463E-01   5.7820196341115626E-01  -2.1582692274132004E-01