 variables = x,y,rho,p,mach,u,v
 zone t ="039080",i=          51 ,j=          81 ,f=point
    5.0000000000000000E-01  -2.0000000000000000E+01   1.0001710179279366E+00   7.1442805738038428E-01   6.0005100773030906E-01   6.0005937424486022E-01  -3.6318309975058593E-04
    5.1000096765293290E-01  -2.0000000000000000E+01   1.0001372130488451E+00   7.1435998531043321E-01   6.0009062926044232E-01   6.0008052808417289E-01  -3.9508667054026178E-04
    5.2114496734874882E-01  -2.0000000000000000E+01   1.0001369249682281E+00   7.1435983728705943E-01   6.0009113054556251E-01   6.0008105246499788E-01  -3.9683188919026791E-04
    5.3356263867117582E-01  -2.0000000000000000E+01   1.0001365836169436E+00   7.1435966549905416E-01   6.0009168098673826E-01   6.0008163182306773E-01  -3.9883781997660222E-04
    5.4739955228215886E-01  -2.0000000000000000E+01   1.0001362004853207E+00   7.1435947361701724E-01   6.0009228805631709E-01   6.0008227173700479E-01  -4.0108283311821177E-04
    5.6281791642681289E-01  -2.0000000000000000E+01   1.0001357765519907E+00   7.1435926148316431E-01   6.0009295773888194E-01   6.0008297782097209E-01  -4.0357854029656886E-04
    5.7999847847848751E-01  -2.0000000000000000E+01   1.0001353080497632E+00   7.1435902710938393E-01   6.0009369711524307E-01   6.0008375743246911E-01  -4.0634748779607013E-04
    5.9914264381549465E-01  -2.0000000000000000E+01   1.0001347911070471E+00   7.1435876851777613E-01   6.0009451275973313E-01   6.0008461745415931E-01  -4.0941693181752018E-04
    6.2047483686880300E-01  -2.0000000000000000E+01   1.0001342214042763E+00   7.1435848353691667E-01   6.0009541160619295E-01   6.0008556517817113E-01  -4.1281729315685540E-04
    6.4424513201893663E-01  -2.0000000000000000E+01   1.0001335943121841E+00   7.1435816984856415E-01   6.0009640098452899E-01   6.0008660832075256E-01  -4.1658186628210325E-04
    6.7073218518372335E-01  -2.0000000000000000E+01   1.0001329049513985E+00   7.1435782501090983E-01   6.0009748860142287E-01   6.0008775499456690E-01  -4.2074685500717281E-04
    7.0024650046349302E-01  -2.0000000000000000E+01   1.0001321482174961E+00   7.1435744647000121E-01   6.0009868251290066E-01   6.0008901367814371E-01  -4.2535148721998108E-04
    7.3313407013816478E-01  -2.0000000000000000E+01   1.0001313188151890E+00   7.1435703157644137E-01   6.0009999107480216E-01   6.0009039316263757E-01  -4.3043814069707948E-04
    7.6978043068740498E-01  -1.9999999999999996E+01   1.0001304113008209E+00   7.1435657760652294E-01   6.0010142287695467E-01   6.0009190248160049E-01  -4.3605245961326875E-04
    8.1061518238203001E-01  -2.0000000000000000E+01   1.0001294201344715E+00   7.1435608178824661E-01   6.0010298666128914E-01   6.0009355082380145E-01  -4.4224345419537428E-04
    8.5611702542920409E-01  -2.0000000000000004E+01   1.0001283397415983E+00   7.1435554133212131E-01   6.0010469122471188E-01   6.0009534742987669E-01  -4.4906358007339625E-04
    9.0681937170947302E-01  -2.0000000000000000E+01   1.0001271645826164E+00   7.1435495346593880E-01   6.0010654530936147E-01   6.0009730147557150E-01  -4.5656879618115196E-04
    9.6331659789125856E-01  -2.0000000000000000E+01   1.0001258892272149E+00   7.1435431547191741E-01   6.0010855748532477E-01   6.0009942194692378E-01  -4.6481860245570352E-04
    1.0262710132272206E+00  -2.0000000000000000E+01   1.0001245084280665E+00   7.1435362472353947E-01   6.0011073603424381E-01   6.0010171751628449E-01  -4.7387606162541774E-04
    1.0964206237150105E+00  -2.0000000000000000E+01   1.0001230171858742E+00   7.1435287871805109E-01   6.0011308884652848E-01   6.0010419643259638E-01  -4.8380781314130868E-04
    1.1745877836406080E+00  -2.0000000000000000E+01   1.0001214107944394E+00   7.1435207509895982E-01   6.0011562335006918E-01   6.0010686644481781E-01  -4.9468409156253371E-04
    1.2616888359251033E+00  -2.0000000000000000E+01   1.0001196848508112E+00   7.1435121166104465E-01   6.0011834649413209E-01   6.0010973478348240E-01  -5.0657876582588311E-04
    1.3587448542873868E+00  -2.0000000000000000E+01   1.0001178352119340E+00   7.1435028632856501E-01   6.0012126481796835E-01   6.0011280823155555E-01  -5.1956941861186902E-04
    1.4668936131516555E+00  -2.0000000000000000E+01   1.0001158578762599E+00   7.1434929709586192E-01   6.0012438463847895E-01   6.0011609332080884E-01  -5.3373748449249935E-04
    1.5874029256213178E+00  -2.0000000000000000E+01   1.0001137487675171E+00   7.1434824191889845E-01   6.0012771239342722E-01   6.0011959669219728E-01  -5.4916845880272460E-04
    1.7216855058785459E+00  -1.9999999999999996E+01   1.0001115033996462E+00   7.1434711854718658E-01   6.0013125517391197E-01   6.0012332565578419E-01  -5.6595217240498275E-04
    1.8713155302393454E+00  -1.9999999999999996E+01   1.0001091164083831E+00   7.1434592428878885E-01   6.0013502146951492E-01   6.0012728897490220E-01  -5.8418309638720047E-04
    2.0380470910071353E+00  -2.0000000000000000E+01   1.0001065809475049E+00   7.1434465570739480E-01   6.0013902212927295E-01   6.0013149787792797E-01  -6.0396059130702056E-04
    2.2238347594568242E+00  -2.0000000000000000E+01   1.0001038879671971E+00   7.1434330826026526E-01   6.0014327151011937E-01   6.0013596726789875E-01  -6.2538894588872991E-04
    2.4308564990064472E+00  -1.9999999999999996E+01   1.0001010254178915E+00   7.1434187589890707E-01   6.0014778874219676E-01   6.0014071705583916E-01  -6.4857696122225640E-04
    2.6615391971843287E+00  -2.0000000000000000E+01   1.0000979774540504E+00   7.1434035066995027E-01   6.0015259899076701E-01   6.0014577349140530E-01  -6.7363673567795510E-04
    2.9185871156995344E+00  -2.0000000000000000E+01   1.0000947237448012E+00   7.1433872237009743E-01   6.0015773454123345E-01   6.0015117030869780E-01  -7.0068119878584757E-04
    3.2050135921318934E+00  -2.0000000000000000E+01   1.0000912390342278E+00   7.1433697832640708E-01   6.0016323548388528E-01   6.0015694945207920E-01  -7.2981985635731030E-04
    3.5241763648761637E+00  -2.0000000000000000E+01   1.0000874931176220E+00   7.1433510338604977E-01   6.0016914972439639E-01   6.0016316109510170E-01  -7.6115211404154928E-04
    3.8798169354498384E+00  -2.0000000000000000E+01   1.0000834514529058E+00   7.1433308022222775E-01   6.0017553200980389E-01   6.0016986262339000E-01  -7.9475758180891224E-04
    4.2761044296035209E+00  -2.0000000000000000E+01   1.0000790765944270E+00   7.1433089005547146E-01   6.0018244160741785E-01   6.0017711620725733E-01  -8.3068264292814400E-04
    4.7176844714116939E+00  -2.0000000000000000E+01   1.0000743307901430E+00   7.1432851394765728E-01   6.0018993825848255E-01   6.0018498455253444E-01  -8.6892303213827627E-04
    5.2097336432881294E+00  -2.0000000000000000E+01   1.0000691798064274E+00   7.1432593472219108E-01   6.0019807604845410E-01   6.0019352447837260E-01  -9.0940195679056139E-04
    5.7580201703532756E+00  -2.0000000000000000E+01   1.0000635984463719E+00   7.1432313971356098E-01   6.0020689482068856E-01   6.0020277789659793E-01  -9.5194458338511770E-04
    6.3689715405481486E+00  -2.0000000000000000E+01   1.0000575774847285E+00   7.1432012422640434E-01   6.0021640934032916E-01   6.0021276043256100E-01  -9.9625049774570572E-04
    7.0497498531960590E+00  -2.0000000000000000E+01   1.0000511317574432E+00   7.1431689561973954E-01   6.0022659609222129E-01   6.0022344761430624E-01  -1.0418652108525003E-03
    7.8083357793130688E+00  -2.0000000000000000E+01   1.0000443098566738E+00   7.1431347799888245E-01   6.0023737976964553E-01   6.0023476052295421E-01  -1.0881622414668235E-03
    8.6536221179224171E+00  -2.0000000000000000E+01   1.0000371999153370E+00   7.1430991550504452E-01   6.0024861991718648E-01   6.0024655219229228E-01  -1.1343237629167701E-03
    9.5955180451207642E+00  -2.0000000000000000E+01   1.0000299398345329E+00   7.1430627654754375E-01   6.0026010300090815E-01   6.0025859839630813E-01  -1.1793744784214799E-03
    1.0645065277993822E+01  -2.0000000000000000E+01   1.0000227058377367E+00   7.1430265039957086E-01   6.0027154280101191E-01   6.0027060012840328E-01  -1.2221650074267238E-03
    1.1814567515155012E+01  -2.0000000000000000E+01   1.0000157308723034E+00   7.1429914841927522E-01   6.0028260785739473E-01   6.0028220550975586E-01  -1.2616373232503045E-03
    1.3117734671320974E+01  -2.0000000000000000E+01   1.0000092006763870E+00   7.1429587979228149E-01   6.0029289257299678E-01   6.0029300277384168E-01  -1.2963797912531926E-03
    1.4569843596765988E+01  -2.0000000000000000E+01   1.0000035348510581E+00   7.1429300233080883E-01   6.0030214315247610E-01   6.0030267940621296E-01  -1.3263484889455286E-03
    1.6187917165747599E+01  -2.0000000000000000E+01   9.9999854377215347E-01   7.1429056268851554E-01   6.0030966414211961E-01   6.0031062210279917E-01  -1.3493535178099906E-03
    1.7990923833332499E+01  -2.0000000000000000E+01   9.9999537997707577E-01   7.1428889667482665E-01   6.0031559133016510E-01   6.0031675293099451E-01  -1.3696451826700586E-03
    2.0000000000000000E+01  -2.0000000000000000E+01   9.9999468403750280E-01   7.1428703580278585E-01   6.0031891519318104E-01   6.0031947781035722E-01  -1.3809588342682585E-03
    5.0000000000000000E-01  -1.6528676754638774E+01   1.0002863987824568E+00   7.1457310211200098E-01   5.9977532357424712E-01   5.9980984761952938E-01  -5.2876288604056753E-04
    5.1000096765293290E-01  -1.6528676754638774E+01   1.0002859743345762E+00   7.1457268922598594E-01   5.9977599519212366E-01   5.9981047240203444E-01  -5.2971384948001131E-04
    5.2114496734874882E-01  -1.6528676754638774E+01   1.0002855912554951E+00   7.1457231291331424E-01   5.9977664125204166E-01   5.9981107440040005E-01  -5.3086519793307417E-04
    5.3356263867117570E-01  -1.6528676754638774E+01   1.0002852247332006E+00   7.1457194471729668E-01   5.9977730411436947E-01   5.9981169149865221E-01  -5.3217695760149266E-04
    5.4739955228215886E-01  -1.6528676754638774E+01   1.0002848158690865E+00   7.1457153524556682E-01   5.9977803754715098E-01   5.9981237439947765E-01  -5.3364670613061799E-04
    5.6281791642681289E-01  -1.6528676754638777E+01   1.0002843601657219E+00   7.1457107940619269E-01   5.9977885209885651E-01   5.9981313285122795E-01  -5.3528676037620845E-04
    5.7999847847848740E-01  -1.6528676754638774E+01   1.0002838550439439E+00   7.1457057418775349E-01   5.9977975476132839E-01   5.9981397333797581E-01  -5.3711507895872910E-04
    5.9914264381549465E-01  -1.6528676754638774E+01   1.0002832952451595E+00   7.1457001430630496E-01   5.9978075499383254E-01   5.9981490465774423E-01  -5.3915279273481984E-04
    6.2047483686880289E-01  -1.6528676754638770E+01   1.0002826752325111E+00   7.1456939420790488E-01   5.9978186276417056E-01   5.9981593608428363E-01  -5.4142372915536648E-04
    6.4424513201893674E-01  -1.6528676754638774E+01   1.0002819889517238E+00   7.1456870783147486E-01   5.9978308891573096E-01   5.9981707770612003E-01  -5.4395449143182690E-04
    6.7073218518372335E-01  -1.6528676754638774E+01   1.0002812297926797E+00   7.1456794856446171E-01   5.9978444526049102E-01   5.9981834051208516E-01  -5.4677470333875007E-04
    7.0024650046349290E-01  -1.6528676754638770E+01   1.0002803905721944E+00   7.1456710922149591E-01   5.9978594463207791E-01   5.9981973644010000E-01  -5.4991731757607744E-04
    7.3313407013816478E-01  -1.6528676754638774E+01   1.0002794634950041E+00   7.1456618200503030E-01   5.9978760095658246E-01   5.9982127844259958E-01  -5.5341896112632064E-04
    7.6978043068740498E-01  -1.6528676754638774E+01   1.0002784401133811E+00   7.1456515846475610E-01   5.9978942932552815E-01   5.9982298055391947E-01  -5.5732031029276580E-04
    8.1061518238203023E-01  -1.6528676754638774E+01   1.0002773112826557E+00   7.1456402945301178E-01   5.9979144607572643E-01   5.9982485796401697E-01  -5.6166649225816354E-04
    8.5611702542920409E-01  -1.6528676754638777E+01   1.0002760671106103E+00   7.1456278507409876E-01   5.9979366887986119E-01   5.9982692710208574E-01  -5.6650750991463802E-04
    9.0681937170947280E-01  -1.6528676754638774E+01   1.0002746968980358E+00   7.1456141462475731E-01   5.9979611685283230E-01   5.9982920573474341E-01  -5.7189868514769383E-04
    9.6331659789125856E-01  -1.6528676754638774E+01   1.0002731890664056E+00   7.1455990652174983E-01   5.9979881068110064E-01   5.9983171308552352E-01  -5.7790111334709107E-04
    1.0262710132272206E+00  -1.6528676754638777E+01   1.0002715310671577E+00   7.1455824821104619E-01   5.9980177278486002E-01   5.9983446998482703E-01  -5.8458211872699714E-04
    1.0964206237150105E+00  -1.6528676754638774E+01   1.0002697092653419E+00   7.1455642605135650E-01   5.9980502752598719E-01   5.9983749906239281E-01  -5.9201569594323890E-04
    1.1745877836406078E+00  -1.6528676754638774E+01   1.0002677087883525E+00   7.1455442516273937E-01   5.9980860147833692E-01   5.9984082499772917E-01  -6.0028291826677680E-04
    1.2616888359251035E+00  -1.6528676754638774E+01   1.0002655133282790E+00   7.1455222922880601E-01   5.9981252378089234E-01   5.9984447484762515E-01  -6.0947228586016367E-04
    1.3587448542873870E+00  -1.6528676754638777E+01   1.0002631048841886E+00   7.1454982023881752E-01   5.9981682659828084E-01   5.9984847847360334E-01  -6.1967997899038652E-04
    1.4668936131516555E+00  -1.6528676754638777E+01   1.0002604634286592E+00   7.1454717815396829E-01   5.9982154571679602E-01   5.9985286909556979E-01  -6.3100996955476490E-04
    1.5874029256213178E+00  -1.6528676754638774E+01   1.0002575664815327E+00   7.1454428048077401E-01   5.9982672130660086E-01   5.9985768400030892E-01  -6.4357392909630514E-04
    1.7216855058785456E+00  -1.6528676754638774E+01   1.0002543885737660E+00   7.1454110173436258E-01   5.9983239888110873E-01   5.9986296543379791E-01  -6.5749085133169063E-04
    1.8713155302393454E+00  -1.6528676754638774E+01   1.0002509005864382E+00   7.1453761277662609E-01   5.9983863048076924E-01   5.9986876170285597E-01  -6.7288628089859988E-04
    2.0380470910071353E+00  -1.6528676754638774E+01   1.0002470689560941E+00   7.1453378002032264E-01   5.9984547609749450E-01   5.9987512850146996E-01  -6.8989100677216517E-04
    2.2238347594568242E+00  -1.6528676754638774E+01   1.0002428547503666E+00   7.1452956450305560E-01   5.9985300533269292E-01   5.9988213045553751E-01  -7.0863903891442285E-04
    2.4308564990064472E+00  -1.6528676754638774E+01   1.0002382126414189E+00   7.1452492085881592E-01   5.9986129923871323E-01   5.9988984283966607E-01  -7.2926464227357317E-04
    2.6615391971843287E+00  -1.6528676754638774E+01   1.0002330898445344E+00   7.1451979625489581E-01   5.9987045222036550E-01   5.9989835335162678E-01  -7.5189815777615854E-04
    2.9185871156995353E+00  -1.6528676754638774E+01   1.0002274251524772E+00   7.1451412942542691E-01   5.9988057375916048E-01   5.9990776372395149E-01  -7.7666030125964124E-04
    3.2050135921318943E+00  -1.6528676754638774E+01   1.0002211482857875E+00   7.1450785002289074E-01   5.9989178955949773E-01   5.9991819080000719E-01  -8.0365461164683821E-04
    3.5241763648761637E+00  -1.6528676754638774E+01   1.0002141799027242E+00   7.1450087863156453E-01   5.9990424150118848E-01   5.9992976650180230E-01  -8.3295771586778080E-04
    3.8798169354498380E+00  -1.6528676754638774E+01   1.0002064327495972E+00   7.1449312792433339E-01   5.9991808553522230E-01   5.9994263588619823E-01  -8.6460716062494920E-04
    4.2761044296035209E+00  -1.6528676754638774E+01   1.0001978145854689E+00   7.1448450559602084E-01   5.9993348639562472E-01   5.9995695224020207E-01  -8.9858661986483648E-04
    4.7176844714116939E+00  -1.6528676754638774E+01   1.0001882336349219E+00   7.1447491981893851E-01   5.9995060783157206E-01   5.9997286800841831E-01  -9.3480870680506464E-04
    5.2097336432881276E+00  -1.6528676754638774E+01   1.0001776072774173E+00   7.1446428794964012E-01   5.9996959696698371E-01   5.9999052025524968E-01  -9.7309573214488670E-04
    5.7580201703532774E+00  -1.6528676754638774E+01   1.0001658748362237E+00   7.1445254926724377E-01   5.9999056176572541E-01   6.0001000970813267E-01  -1.0131601224835809E-03
    6.3689715405481486E+00  -1.6528676754638774E+01   1.0001530140741832E+00   7.1443968152031412E-01   6.0001354123693018E-01   6.0003137303888798E-01  -1.0545860082682189E-03
    7.0497498531960563E+00  -1.6528676754638774E+01   1.0001390617796715E+00   7.1442572154288486E-01   6.0003846851134646E-01   6.0005454850354101E-01  -1.0968143719351378E-03
    7.8083357793130688E+00  -1.6528676754638774E+01   1.0001241360636210E+00   7.1441078717482287E-01   6.0006513321368438E-01   6.0007934089312187E-01  -1.1391433007315159E-03
    8.6536221179224171E+00  -1.6528676754638774E+01   1.0001084514278442E+00   7.1439509340456764E-01   6.0009314868203145E-01   6.0010539107587413E-01  -1.1807266167945544E-03
    9.5955180451207678E+00  -1.6528676754638774E+01   1.0000923333580616E+00   7.1437896461196970E-01   6.0012193681720971E-01   6.0013216154835503E-01  -1.2206312210663432E-03
    1.0645065277993822E+01  -1.6528676754638774E+01   1.0000761992544780E+00   7.1436281970980464E-01   6.0015075205930446E-01   6.0015895985894130E-01  -1.2578633083408228E-03
    1.1814567515155009E+01  -1.6528676754638774E+01   1.0000605550998216E+00   7.1434715201219723E-01   6.0017872898836477E-01   6.0018497831290241E-01  -1.2915689882053844E-03
    1.3117734671320969E+01  -1.6528676754638774E+01   1.0000458730813846E+00   7.1433248196073029E-01   6.0020485887795405E-01   6.0020928828164510E-01  -1.3205911715998731E-03
    1.4569843596765992E+01  -1.6528676754638774E+01   1.0000329470279583E+00   7.1431944435590300E-01   6.0022834167196770E-01   6.0023111858826284E-01  -1.3450694271205871E-03
    1.6187917165747596E+01  -1.6528676754638774E+01   1.0000216650700045E+00   7.1430834551533418E-01   6.0024789967956593E-01   6.0024935827666714E-01  -1.3633085479133401E-03
    1.7990923833332499E+01  -1.6528676754638774E+01   1.0000141785494254E+00   7.1430050006121371E-01   6.0026355046098290E-01   6.0026392395824779E-01  -1.3789234288180273E-03
    2.0000000000000000E+01  -1.6528676754638774E+01   1.0000121007655240E+00   7.1429172601059243E-01   6.0027318702926391E-01   6.0027047737694816E-01  -1.3876434801521375E-03
    5.0000000000000000E-01  -1.3659857619547005E+01   1.0005029642698724E+00   7.1478200409745529E-01   5.9931092956967380E-01   5.9936799924022777E-01  -6.7874762566295184E-04
    5.1000096765293290E-01  -1.3659857619547010E+01   1.0005027514840950E+00   7.1478179114865636E-01   5.9931131177956243E-01   5.9936835502329422E-01  -6.7955719729920335E-04
    5.2114496734874893E-01  -1.3659857619547005E+01   1.0005024049257929E+00   7.1478145532824300E-01   5.9931186788763435E-01   5.9936887320347598E-01  -6.8042702558416721E-04
    5.3356263867117582E-01  -1.3659857619547008E+01   1.0005020883604843E+00   7.1478113817117150E-01   5.9931243507793053E-01   5.9936940119984983E-01  -6.8139136294041128E-04
    5.4739955228215886E-01  -1.3659857619547005E+01   1.0005017349000020E+00   7.1478078439553161E-01   5.9931306785513305E-01   5.9936999035769711E-01  -6.8246844209720247E-04
    5.6281791642681289E-01  -1.3659857619547006E+01   1.0005013374110507E+00   7.1478038691597812E-01   5.9931377757236581E-01   5.9937065117863342E-01  -6.8367396259797614E-04
    5.7999847847848751E-01  -1.3659857619547005E+01   1.0005008927704409E+00   7.1477994227603903E-01   5.9931457162472945E-01   5.9937139052516064E-01  -6.8502439013284932E-04
    5.9914264381549465E-01  -1.3659857619547003E+01   1.0005003948219551E+00   7.1477944433561436E-01   5.9931546082721854E-01   5.9937221846095012E-01  -6.8653802130451533E-04
    6.2047483686880300E-01  -1.3659857619547005E+01   1.0004998369205635E+00   7.1477888644321363E-01   5.9931645706265924E-01   5.9937314604660730E-01  -6.8823549046232314E-04
    6.4424513201893641E-01  -1.3659857619547005E+01   1.0004992115459053E+00   7.1477826107420406E-01   5.9931757377677553E-01   5.9937418579833857E-01  -6.9014016252144531E-04
    6.7073218518372324E-01  -1.3659857619547005E+01   1.0004985101476513E+00   7.1477755967671952E-01   5.9931882624034982E-01   5.9937535193126990E-01  -6.9227853046105079E-04
    7.0024650046349302E-01  -1.3659857619547005E+01   1.0004977230146463E+00   7.1477677253769756E-01   5.9932023179952831E-01   5.9937666059214312E-01  -6.9468065193124861E-04
    7.3313407013816478E-01  -1.3659857619547005E+01   1.0004968390997855E+00   7.1477588860775776E-01   5.9932181018777952E-01   5.9937813014957064E-01  -6.9738063706018232E-04
    7.6978043068740498E-01  -1.3659857619547005E+01   1.0004958458188407E+00   7.1477489529988525E-01   5.9932358388582752E-01   5.9937978152896287E-01  -7.0041719255365634E-04
    8.1061518238203012E-01  -1.3659857619547005E+01   1.0004947288163673E+00   7.1477377825519761E-01   5.9932557854047308E-01   5.9938163860226668E-01  -7.0383422385503084E-04
    8.5611702542920409E-01  -1.3659857619547006E+01   1.0004934716927560E+00   7.1477252106986366E-01   5.9932782345275060E-01   5.9938372864223388E-01  -7.0768149396282002E-04
    9.0681937170947302E-01  -1.3659857619547005E+01   1.0004920556860184E+00   7.1477110497674001E-01   5.9933035214700303E-01   5.9938608285200690E-01  -7.1201533328874695E-04
    9.6331659789125856E-01  -1.3659857619547005E+01   1.0004904593007804E+00   7.1476950847419451E-01   5.9933320303431181E-01   5.9938873698253481E-01  -7.1689938904041838E-04
    1.0262710132272206E+00  -1.3659857619547005E+01   1.0004886578759717E+00   7.1476770689360491E-01   5.9933642018548094E-01   5.9939173205198859E-01  -7.2240539448165683E-04
    1.0964206237150107E+00  -1.3659857619547005E+01   1.0004866230817331E+00   7.1476567189605611E-01   5.9934005423049597E-01   5.9939511518295097E-01  -7.2861392750377487E-04
    1.1745877836406082E+00  -1.3659857619547005E+01   1.0004843223352173E+00   7.1476337088791619E-01   5.9934416340286767E-01   5.9939894057455523E-01  -7.3561511367355235E-04
    1.2616888359251033E+00  -1.3659857619547005E+01   1.0004817181244248E+00   7.1476076634443819E-01   5.9934881474819801E-01   5.9940327062763110E-01  -7.4350921080917410E-04
    1.3587448542873870E+00  -1.3659857619547003E+01   1.0004787672292628E+00   7.1475781503059055E-01   5.9935408551617075E-01   5.9940817724081097E-01  -7.5240698983395596E-04
    1.4668936131516557E+00  -1.3659857619547006E+01   1.0004754198301018E+00   7.1475446710940849E-01   5.9936006475318537E-01   5.9941374329373320E-01  -7.6242980012248640E-04
    1.5874029256213178E+00  -1.3659857619547003E+01   1.0004716184969351E+00   7.1475066513099461E-01   5.9936685510774634E-01   5.9942006432876727E-01  -7.7370917716404301E-04
    1.7216855058785459E+00  -1.3659857619547005E+01   1.0004672970579378E+00   7.1474634290099659E-01   5.9937457485053158E-01   5.9942725043324852E-01  -7.8638581702636184E-04
    1.8713155302393456E+00  -1.3659857619547006E+01   1.0004623793565841E+00   7.1474142423774134E-01   5.9938336009254367E-01   5.9943542830702878E-01  -8.0060770716792800E-04
    2.0380470910071353E+00  -1.3659857619547005E+01   1.0004567779243809E+00   7.1473582164509986E-01   5.9939336715284974E-01   5.9944474347052057E-01  -8.1652716853015332E-04
    2.2238347594568242E+00  -1.3659857619547003E+01   1.0004503926259103E+00   7.1472943495785179E-01   5.9940477497407185E-01   5.9945536251881704E-01  -8.3429653093983810E-04
    2.4308564990064467E+00  -1.3659857619547005E+01   1.0004431093816559E+00   7.1472215006490747E-01   5.9941778739777440E-01   5.9946747524743549E-01  -8.5406213842824158E-04
    2.6615391971843287E+00  -1.3659857619547005E+01   1.0004347991465852E+00   7.1471383788928000E-01   5.9943263497598864E-01   5.9948129634872727E-01  -8.7595635713619204E-04
    2.9185871156995349E+00  -1.3659857619547005E+01   1.0004253174447588E+00   7.1470435392281739E-01   5.9944957579649638E-01   5.9949706619297227E-01  -9.0008729082579112E-04
    3.2050135921318947E+00  -1.3659857619547005E+01   1.0004145048837740E+00   7.1469353874881758E-01   5.9946889450655838E-01   5.9951504993532456E-01  -9.2652587562994581E-04
    3.5241763648761637E+00  -1.3659857619547008E+01   1.0004021893929251E+00   7.1468122027089076E-01   5.9949089836604019E-01   5.9953553385960467E-01  -9.5529042460104413E-04
    3.8798169354498384E+00  -1.3659857619547005E+01   1.0003881908465810E+00   7.1466721837996827E-01   5.9951590870824345E-01   5.9955881744865225E-01  -9.8632829037353128E-04
    4.2761044296035209E+00  -1.3659857619547005E+01   1.0003723298244187E+00   7.1465135364037058E-01   5.9954424574813869E-01   5.9958519925850906E-01  -1.0194965222026346E-03
    4.7176844714116939E+00  -1.3659857619547005E+01   1.0003544404453155E+00   7.1463346027478725E-01   5.9957620470607476E-01   5.9961495470443416E-01  -1.0545406384424533E-03
    5.2097336432881267E+00  -1.3659857619547005E+01   1.0003343910521840E+00   7.1461340664778006E-01   5.9961202011327852E-01   5.9964830282631476E-01  -1.0910776626044322E-03
    5.7580201703532765E+00  -1.3659857619547005E+01   1.0003121098267507E+00   7.1459112100712407E-01   5.9965181926798661E-01   5.9968536293711094E-01  -1.1285834344104727E-03
    6.3689715405481486E+00  -1.3659857619547008E+01   1.0002876181315841E+00   7.1456662505519275E-01   5.9969556123598677E-01   5.9972609777803376E-01  -1.1663886632247305E-03
    7.0497498531960581E+00  -1.3659857619547005E+01   1.0002610700920174E+00   7.1454007264397656E-01   5.9974297176683899E-01   5.9977025282739893E-01  -1.2036985695948205E-03
    7.8083357793130705E+00  -1.3659857619547006E+01   1.0002327807779192E+00   7.1451177891091255E-01   5.9979348667893695E-01   5.9981730344076079E-01  -1.2396306653101876E-03
    8.6536221179224171E+00  -1.3659857619547005E+01   1.0002032591161922E+00   7.1448225094837026E-01   5.9984620860531379E-01   5.9986641447387490E-01  -1.2732928658204597E-03
    9.5955180451207660E+00  -1.3659857619547005E+01   1.0001731926815101E+00   7.1445218110959041E-01   5.9989987434477998E-01   5.9991640930633583E-01  -1.3038229312723210E-03
    1.0645065277993819E+01  -1.3659857619547005E+01   1.0001434721946332E+00   7.1442246009483723E-01   5.9995290925527944E-01   5.9996582215377536E-01  -1.3304861162270430E-03
    1.1814567515155009E+01  -1.3659857619547005E+01   1.0001150438053612E+00   7.1439401617695075E-01   6.0000367202579552E-01   6.0001311931739398E-01  -1.3527967127646185E-03
    1.3117734671320971E+01  -1.3659857619547008E+01   1.0000887265194827E+00   7.1436773153222344E-01   6.0005050417452332E-01   6.0005676906296990E-01  -1.3701507398513489E-03
    1.4569843596765988E+01  -1.3659857619547005E+01   1.0000656932807490E+00   7.1434454563080663E-01   6.0009220508923633E-01   6.0009561227147579E-01  -1.3833225692975878E-03
    1.6187917165747596E+01  -1.3659857619547003E+01   1.0000458315461760E+00   7.1432493351891468E-01   6.0012689350499449E-01   6.0012800136596900E-01  -1.3923501971343322E-03
    1.7990923833332499E+01  -1.3659857619547003E+01   1.0000325087865003E+00   7.1431101232824157E-01   6.0015459263788495E-01   6.0015383535593836E-01  -1.3987573245755579E-03
    2.0000000000000000E+01  -1.3659857619547005E+01   1.0000285492248087E+00   7.1429585974505339E-01   6.0017134925272297E-01   6.0016540694552079E-01  -1.4019770922303759E-03
    5.0000000000000000E-01  -1.1288968293447313E+01   1.0006522502100568E+00   7.1493586461667047E-01   5.9894903254313547E-01   5.9902580008203932E-01  -7.1666665138939774E-04
    5.1000096765293301E-01  -1.1288968293447315E+01   1.0006520548584672E+00   7.1493566814758436E-01   5.9894938737759040E-01   5.9902612958001578E-01  -7.1795829691318749E-04
    5.2114496734874893E-01  -1.1288968293447315E+01   1.0006518247933929E+00   7.1493543820542438E-01   5.9894979735618326E-01   5.9902651045365451E-01  -7.1936665479829527E-04
    5.3356263867117582E-01  -1.1288968293447313E+01   1.0006515678295758E+00   7.1493518114678634E-01   5.9895025707050609E-01   5.9902693757298731E-01  -7.2092816332030695E-04
    5.4739955228215886E-01  -1.1288968293447313E+01   1.0006512778649812E+00   7.1493489110256248E-01   5.9895077571209365E-01   5.9902741946895499E-01  -7.2266624157033596E-04
    5.6281791642681300E-01  -1.1288968293447311E+01   1.0006509503215359E+00   7.1493456348108608E-01   5.9895136147245165E-01   5.9902796375293799E-01  -7.2460263483364624E-04
    5.7999847847848751E-01  -1.1288968293447311E+01   1.0006505799781253E+00   7.1493419304641415E-01   5.9895202374796963E-01   5.9902857916181829E-01  -7.2676042973568542E-04
    5.9914264381549465E-01  -1.1288968293447311E+01   1.0006501606799376E+00   7.1493377364293043E-01   5.9895277352759912E-01   5.9902927591602217E-01  -7.2916504482986989E-04
    6.2047483686880300E-01  -1.1288968293447311E+01   1.0006496853040026E+00   7.1493329814469386E-01   5.9895362354613302E-01   5.9903006586117924E-01  -7.3184471115094992E-04
    6.4424513201893663E-01  -1.1288968293447310E+01   1.0006491455645037E+00   7.1493275826261937E-01   5.9895458861779982E-01   5.9903096277861634E-01  -7.3483084226395813E-04
    6.7073218518372335E-01  -1.1288968293447313E+01   1.0006485318029457E+00   7.1493214433441810E-01   5.9895568601187765E-01   5.9903198273514235E-01  -7.3815839954964200E-04
    7.0024650046349302E-01  -1.1288968293447313E+01   1.0006478327386734E+00   7.1493144507486217E-01   5.9895693589979226E-01   5.9903314449948430E-01  -7.4186628147992280E-04
    7.3313407013816478E-01  -1.1288968293447313E+01   1.0006470351704275E+00   7.1493064727718969E-01   5.9895836188913165E-01   5.9903447003972587E-01  -7.4599774504169141E-04
    7.6978043068740498E-01  -1.1288968293447313E+01   1.0006461236208315E+00   7.1492973545739869E-01   5.9895999165990377E-01   5.9903598511602385E-01  -7.5060086100048188E-04
    8.1061518238203001E-01  -1.1288968293447313E+01   1.0006450799129483E+00   7.1492869143057514E-01   5.9896185772234189E-01   5.9903771998659672E-01  -7.5572900146516058E-04