 variables = x,y,rho,p,mach,u,v
 zone t ="039080",i=          51 ,j=          81 ,f=point
    5.0000000000000000E-01   0.0000000000000000E+00   1.0645338836880960E+00   7.8428186409680911E-01   4.3737332688572728E-01   4.4349120989663515E-01  -2.5176217862193120E-02
    5.1000096765293290E-01   0.0000000000000000E+00   1.0669128988010219E+00   7.8313091146996194E-01   4.1323068542689106E-01   4.1821399293932005E-01  -2.3836236586153081E-02
    5.2114496734874882E-01   0.0000000000000000E+00   1.0422473567195694E+00   7.6118678156946418E-01   4.8471447601026091E-01   4.8949922605685214E-01  -2.4775438843530544E-02
    5.3356263867117582E-01   0.0000000000000000E+00   1.0374005283132779E+00   7.5376738361544038E-01   5.1920669586762924E-01   5.2309802528006744E-01  -2.4240744002415462E-02
    5.4739955228215886E-01   0.0000000000000000E+00   1.0330321184299891E+00   7.4876632104654639E-01   5.3110878855225008E-01   5.3450386708665620E-01  -2.3305667642077432E-02
    5.6281791642681289E-01   0.0000000000000000E+00   1.0291574578453249E+00   7.4471826742991520E-01   5.3937553543290073E-01   5.4242584930230009E-01  -2.2389930150244701E-02
    5.7999847847848751E-01   0.0000000000000000E+00   1.0259036760176676E+00   7.4131263872702646E-01   5.4634565157537429E-01   5.4909352858107829E-01  -2.1490097289855438E-02
    5.9914264381549465E-01   0.0000000000000000E+00   1.0230970778782442E+00   7.3835675283973468E-01   5.5239694863710265E-01   5.5486855512535305E-01  -2.0620676483873487E-02
    6.2047483686880300E-01   0.0000000000000000E+00   1.0206342940830093E+00   7.3575911994587040E-01   5.5769219539321691E-01   5.5991336768036648E-01  -1.9762644077641101E-02
    6.4424513201893663E-01   0.0000000000000000E+00   1.0184392569144372E+00   7.3344425434819893E-01   5.6238850125345918E-01   5.6438112683313379E-01  -1.8917759073724762E-02
    6.7073218518372335E-01   0.0000000000000000E+00   1.0164663303614903E+00   7.3136742941446298E-01   5.6658035714372124E-01   5.6836457900154302E-01  -1.8084934829987735E-02
    7.0024650046349302E-01   0.0000000000000000E+00   1.0146927265495214E+00   7.2949977777190900E-01   5.7034784487591561E-01   5.7194173798186798E-01  -1.7242290567106841E-02
    7.3313407013816478E-01   0.0000000000000000E+00   1.0130666212783277E+00   7.2779486392822368E-01   5.7375108311175382E-01   5.7516953679174698E-01  -1.6428524390834750E-02
    7.6978043068740498E-01   0.0000000000000000E+00   1.0116010105580673E+00   7.2626018602097053E-01   5.7680476402131076E-01   5.7806388692449928E-01  -1.5618301765144282E-02
    8.1061518238203001E-01   0.0000000000000000E+00   1.0102657346189809E+00   7.2486646203347227E-01   5.7956012923536426E-01   5.8067388801829112E-01  -1.4818443916753712E-02
    8.5611702542920409E-01   0.0000000000000000E+00   1.0090486732541621E+00   7.2360156507394102E-01   5.8204082919414823E-01   5.8302243347971450E-01  -1.4038252680336996E-02
    9.0681937170947302E-01   0.0000000000000000E+00   1.0079512523594534E+00   7.2246251082008750E-01   5.8427103624367971E-01   5.8513305236038771E-01  -1.3267320663543650E-02
    9.6331659789125856E-01   0.0000000000000000E+00   1.0069527395556193E+00   7.2143031088613729E-01   5.8627635657792965E-01   5.8702993465710940E-01  -1.2521528781877046E-02
    1.0262710132272206E+00   0.0000000000000000E+00   1.0060605526366979E+00   7.2050807017974661E-01   5.8807039287898877E-01   5.8872660368767771E-01  -1.1786414952812165E-02
    1.0964206237150105E+00   0.0000000000000000E+00   1.0052513011620894E+00   7.1967575071291678E-01   5.8967739169083200E-01   5.9024606839905447E-01  -1.1078869262703624E-02
    1.1745877836406080E+00   0.0000000000000000E+00   1.0045302639530274E+00   7.1893613117248978E-01   5.9110107337003737E-01   5.9159216363103562E-01  -1.0391160256217870E-02
    1.2616888359251033E+00   0.0000000000000000E+00   1.0038841611603488E+00   7.1827688859119143E-01   5.9235937239799219E-01   5.9278190020020316E-01  -9.7288832792992198E-03
    1.3587448542873868E+00   0.0000000000000000E+00   1.0033080428722925E+00   7.1769249876326979E-01   5.9345829156286167E-01   5.9382068119198417E-01  -9.0965843262306514E-03
    1.4668936131516555E+00   0.0000000000000000E+00   1.0028043973827616E+00   7.1718130104200362E-01   5.9441730985156593E-01   5.9472697476313940E-01  -8.4841850198623791E-03
    1.5874029256213178E+00   0.0000000000000000E+00   1.0023570008814005E+00   7.1672767928602210E-01   5.9525776371356187E-01   5.9552045391572483E-01  -7.9065974192895176E-03
    1.7216855058785459E+00   0.0000000000000000E+00   1.0019731019156477E+00   7.1633483606704873E-01   5.9598728812843338E-01   5.9620822275705310E-01  -7.3561610771139567E-03
    1.8713155302393454E+00   0.0000000000000000E+00   1.0016438916668342E+00   7.1599317495596249E-01   5.9662988249080584E-01   5.9681306689290514E-01  -6.8328539426489665E-03
    2.0380470910071353E+00   0.0000000000000000E+00   1.0013598835515796E+00   7.1569497304053065E-01   5.9719358597895311E-01   5.9734267717775125E-01  -6.3445640387488856E-03
    2.2238347594568242E+00   0.0000000000000000E+00   1.0011226247245955E+00   7.1544125998956620E-01   5.9768250633066389E-01   5.9780133615882713E-01  -5.8835312495813964E-03
    2.4308564990064472E+00   0.0000000000000000E+00   1.0009205548871707E+00   7.1522327475331571E-01   5.9811046493748754E-01   5.9820275639880949E-01  -5.4500385080087322E-03
    2.6615391971843287E+00   0.0000000000000000E+00   1.0007442346793058E+00   7.1503552855905139E-01   5.9847651356311471E-01   5.9854657120373334E-01  -5.0478550638679452E-03
    2.9185871156995344E+00   0.0000000000000000E+00   1.0005918432390868E+00   7.1487708317918219E-01   5.9878132010576268E-01   5.9883371592434731E-01  -4.6733848776490837E-03
    3.2050135921318934E+00   0.0000000000000000E+00   1.0004604187665811E+00   7.1474312321944455E-01   5.9904564323860932E-01   5.9908390079264118E-01  -4.3254577089944747E-03
    3.5241763648761637E+00   0.0000000000000000E+00   1.0003470833084200E+00   7.1463003784693302E-01   5.9928478369191118E-01   5.9931183856303594E-01  -4.0035255212292741E-03
    3.8798169354498384E+00   0.0000000000000000E+00   1.0002478617232595E+00   7.1453515484907149E-01   5.9947850178724416E-01   5.9949741448245020E-01  -3.7066530551835724E-03
    4.2761044296035209E+00   0.0000000000000000E+00   1.0001656288232159E+00   7.1445607603829242E-01   5.9963915095036024E-01   5.9965116563929444E-01  -3.4337672323676918E-03
    4.7176844714116939E+00   0.0000000000000000E+00   1.0000966683573280E+00   7.1439093557401212E-01   5.9979819353585295E-01   5.9980493573982618E-01  -3.1825821092357457E-03
    5.2097336432881294E+00   0.0000000000000000E+00   1.0000389881596197E+00   7.1433732906299285E-01   5.9990095029724178E-01   5.9990366746823498E-01  -2.9518678303846260E-03
    5.7580201703532756E+00   0.0000000000000000E+00   9.9999569159624446E-01   7.1429329123844831E-01   5.9993997254311016E-01   5.9993818930810272E-01  -2.7401378233857104E-03
    6.3689715405481486E+00   0.0000000000000000E+00   9.9996151195801175E-01   7.1425759280727763E-01   5.9998293062487384E-01   5.9997727999848538E-01  -2.5422353309865072E-03
    7.0497498531960590E+00   0.0000000000000000E+00   9.9993034041648521E-01   7.1422533230976970E-01   6.0002009868211670E-01   6.0001097807694925E-01  -2.3641418867650921E-03
    7.8083357793130688E+00   0.0000000000000000E+00   9.9990636608175298E-01   7.1419849763402399E-01   6.0004890924401300E-01   6.0003629271527614E-01  -2.2111703065487674E-03
    8.6536221179224171E+00   0.0000000000000000E+00   9.9988846238566298E-01   7.1418185144954460E-01   6.0008505156158820E-01   6.0007130223052307E-01  -2.0744169274819011E-03
    9.5955180451207642E+00   0.0000000000000000E+00   9.9987809231561597E-01   7.1417338766436855E-01   6.0004040437793715E-01   6.0002663717059768E-01  -1.9474229725206312E-03
    1.0645065277993822E+01   0.0000000000000000E+00   9.9988842177895698E-01   7.1417009030369649E-01   6.0024211952586692E-01   6.0022423296391303E-01  -1.8301059338830100E-03
    1.1814567515155012E+01   0.0000000000000000E+00   9.9989314077770475E-01   7.1416989137660347E-01   6.0050046481343711E-01   6.0048138250095806E-01  -1.7253294751892055E-03
    1.3117734671320974E+01   0.0000000000000000E+00   9.9985556244388341E-01   7.1417438319063509E-01   5.9961790172730500E-01   5.9961224810536540E-01  -1.6345195264512817E-03
    1.4569843596765988E+01   0.0000000000000000E+00   9.9981245678817410E-01   7.1418381448436585E-01   5.9806763674446684E-01   5.9807903880248658E-01  -1.5552282640128048E-03
    1.6187917165747599E+01   0.0000000000000000E+00   9.9982605270132574E-01   7.1419847661741387E-01   5.9736017910739458E-01   5.9737379577803129E-01  -1.4914735797333181E-03
    1.7990923833332499E+01   0.0000000000000000E+00   9.9985298855430438E-01   7.1421014711429798E-01   5.9772560068816505E-01   5.9773621897303197E-01  -1.4263259083258707E-03
    2.0000000000000000E+01   0.0000000000000000E+00   9.9985475613730690E-01   7.1424936484271762E-01   5.9811136909327545E-01   5.9813798081426406E-01  -1.3872997522455185E-03
    4.9999999999999989E-01   9.9985250900630208E-07   1.0624726989235258E+00   7.8225972164445623E-01   4.3411484614417711E-01   4.3652733935945021E-01  -6.0878704914893722E-02
    5.1000096765293290E-01   9.9985250900630229E-07   1.0669096104550766E+00   7.8312973203344893E-01   4.1329122694062032E-01   4.1827555684795481E-01  -2.3839476149638224E-02
    5.2114496734874882E-01   9.9985250900630208E-07   1.0422593919751368E+00   7.6118676193530455E-01   4.8494284735702947E-01   4.8972736865072752E-01  -2.4780035809529553E-02
    5.3356263867117582E-01   9.9985250900630250E-07   1.0374075816883361E+00   7.5376733859337941E-01   5.1926240935344015E-01   5.2315242256018346E-01  -2.4241999237019037E-02
    5.4739955228215886E-01   9.9985250900630208E-07   1.0330329060009817E+00   7.4876627862558220E-01   5.3111650272722366E-01   5.3451140513636752E-01  -2.3306157678558349E-02
    5.6281791642681311E-01   9.9985250900630208E-07   1.0291571998234583E+00   7.4471823958327754E-01   5.3937827589523291E-01   5.4242865436015231E-01  -2.2390257727508939E-02
    5.7999847847848762E-01   9.9985250900630208E-07   1.0259035555915994E+00   7.4131261877989696E-01   5.4634982581886171E-01   5.4909774516827148E-01  -2.1490351405251476E-02
    5.9914264381549454E-01   9.9985250900630208E-07   1.0230970231421506E+00   7.3835673948280245E-01   5.5240138003336581E-01   5.5487301502145814E-01  -2.0620873135294312E-02
    6.2047483686880300E-01   9.9985250900630208E-07   1.0206342609253394E+00   7.3575910625410379E-01   5.5769628868500321E-01   5.5991748077749859E-01  -1.9762800079414680E-02
    6.4424513201893663E-01   9.9985250900630186E-07   1.0184392022372559E+00   7.3344424260635144E-01   5.6239222748297524E-01   5.6438487700865814E-01  -1.8917881662258086E-02
    6.7073218518372346E-01   9.9985250900630208E-07   1.0164662644793412E+00   7.3136741981154663E-01   5.6658363654538701E-01   5.6836788366668145E-01  -1.8085032081838905E-02
    7.0024650046349279E-01   9.9985250900630208E-07   1.0146926397154128E+00   7.2949976965305319E-01   5.7035082151037519E-01   5.7194474459411082E-01  -1.7242369175672099E-02
    7.3313407013816456E-01   9.9985250900630208E-07   1.0130665314205127E+00   7.2779485760949147E-01   5.7375375652369076E-01   5.7517224021963009E-01  -1.6428587584742783E-02
    7.6978043068740509E-01   9.9985250900630186E-07   1.0116009246589224E+00   7.2626018042514962E-01   5.7680729538559417E-01   5.7806644661962447E-01  -1.5618352971042722E-02
    8.1061518238202990E-01   9.9985250900630186E-07   1.0102656633593095E+00   7.2486645734471211E-01   5.7956277814850699E-01   5.8067656130604728E-01  -1.4818485120902447E-02
    8.5611702542920409E-01   9.9985250900630208E-07   1.0090486175257134E+00   7.2360156096222117E-01   5.8204367139768776E-01   5.8302529578801743E-01  -1.4038285674176521E-02
    9.0681937170947302E-01   9.9985250900630208E-07   1.0079512121315535E+00   7.2246250729602868E-01   5.8427398494619454E-01   5.8513601659019943E-01  -1.3267346731615153E-02
    9.6331659789125867E-01   9.9985250900630208E-07   1.0069527339470055E+00   7.2143030793846896E-01   5.8627945685508875E-01   5.8703304033347548E-01  -1.2521549167924978E-02
    1.0262710132272206E+00   9.9985250900630186E-07   1.0060605476853559E+00   7.2050806804872081E-01   5.8807363816656710E-01   5.8872985416162649E-01  -1.1786430674254337E-02
    1.0964206237150111E+00   9.9985250900630208E-07   1.0052513040978301E+00   7.1967574928824329E-01   5.8968052679229643E-01   5.9024920595322217E-01  -1.1078881505954874E-02
    1.1745877836406076E+00   9.9985250900630208E-07   1.0045302655282995E+00   7.1893613054201666E-01   5.9110418577196455E-01   5.9159527869074680E-01  -1.0391169691269089E-02
    1.2616888359251033E+00   9.9985250900630208E-07   1.0038841897330153E+00   7.1827688865032124E-01   5.9236242210502998E-01   5.9278494436824813E-01  -9.7288906260559714E-03
    1.3587448542873863E+00   9.9985250900630208E-07   1.0033080885301011E+00   7.1769249983315231E-01   5.9346066811302689E-01   5.9382304659314156E-01  -9.0965900022082283E-03
    1.4668936131516557E+00   9.9985250900630208E-07   1.0028044563120702E+00   7.1718130299732574E-01   5.9441833563770607E-01   5.9472798455915266E-01  -8.4841895716037952E-03
    1.5874029256213178E+00   9.9985250900630144E-07   1.0023570583090269E+00   7.1672768139356746E-01   5.9525703018127774E-01   5.9551970369474183E-01  -7.9066011983018290E-03
    1.7216855058785454E+00   9.9985250900630208E-07   1.0019731199423740E+00   7.1633483766304062E-01   5.9598436811628741E-01   5.9620529647844822E-01  -7.3561643223643463E-03
    1.8713155302393454E+00   9.9985250900630186E-07   1.0016438770227716E+00   7.1599317586156985E-01   5.9662521771013033E-01   5.9680840477910579E-01  -6.8328566189145403E-03
    2.0380470910071367E+00   9.9985250900630208E-07   1.0013596010508587E+00   7.1569497406534632E-01   5.9718887921982655E-01   5.9733805339715806E-01  -6.3445658730873003E-03
    2.2238347594568246E+00   9.9985250900630208E-07   1.0011217198888047E+00   7.1544126162384758E-01   5.9767929291333999E-01   5.9779839264785506E-01  -5.8835325530915599E-03
    2.4308564990064472E+00   9.9985250900630186E-07   1.0009194310343446E+00   7.1522327639326744E-01   5.9811003265828899E-01   5.9820266055389826E-01  -5.4500396470723300E-03
    2.6615391971843287E+00   9.9985250900630208E-07   1.0007436861814101E+00   7.1503552988759256E-01   5.9848193607078948E-01   5.9855215931429862E-01  -5.0478559863029893E-03
    2.9185871156995344E+00   9.9985250900630208E-07   1.0005920735706801E+00   7.1487708424674379E-01   5.9879020821594064E-01   5.9884253686056566E-01  -4.6733854867588923E-03
    3.2050135921318939E+00   9.9985250900630208E-07   1.0004606870911785E+00   7.1474312401811080E-01   5.9904921630484553E-01   5.9908739426735613E-01  -4.3254581526631372E-03
    3.5241763648761637E+00   9.9985250900630186E-07   1.0003473835788823E+00   7.1463003874929265E-01   5.9928156032184698E-01   5.9930852532775503E-01  -4.0035254658004876E-03
    3.8798169354498384E+00   9.9985250900630208E-07   1.0002480497379216E+00   7.1453515580386218E-01   5.9947936865979168E-01   5.9949822547706810E-01  -3.7066529092129540E-03
    4.2761044296035200E+00   9.9985250900630208E-07   1.0001653717878385E+00   7.1445607657885501E-01   5.9963986041817852E-01   5.9965195242830793E-01  -3.4337669915280832E-03
    4.7176844714116912E+00   9.9985250900630208E-07   1.0000969447121204E+00   7.1439093623940231E-01   5.9979537012396977E-01   5.9980202962223217E-01  -3.1825813452091788E-03
    5.2097336432881267E+00   9.9985250900630208E-07   1.0000391899759171E+00   7.1433733025564927E-01   5.9990639281651781E-01   5.9990905011815421E-01  -2.9518668768782918E-03
    5.7580201703532792E+00   9.9985250900630208E-07   9.9999541339172882E-01   7.1429329428290644E-01   5.9995002099001105E-01   5.9994832267390186E-01  -2.7401367810323354E-03
    6.3689715405481486E+00   9.9985250900630186E-07   9.9996159828366193E-01   7.1425759765346097E-01   5.9998665855715905E-01   5.9998098409846012E-01  -2.5422354145872537E-03
    7.0497498531960590E+00   9.9985250900630186E-07   9.9993016496087561E-01   7.1422533345437089E-01   6.0003126364703108E-01   6.0002219616151775E-01  -2.3641443760050113E-03
    7.8083357793130697E+00   9.9985250900630208E-07   9.9990594957537360E-01   7.1419849432311200E-01   6.0004854851104850E-01   6.0003605555738337E-01  -2.2111728000590533E-03
    8.6536221179224135E+00   9.9985250900630208E-07   9.9989026417020288E-01   7.1418184980015786E-01   6.0008889134225829E-01   6.0007460060327300E-01  -2.0744164726428042E-03
    9.5955180451207696E+00   9.9985250900630208E-07   9.9987775156395919E-01   7.1417338847893219E-01   6.0005347428785760E-01   6.0003980951175018E-01  -1.9474217608156561E-03
    1.0645065277993824E+01   9.9985250900630186E-07   9.9988257607238051E-01   7.1417009117577812E-01   6.0010218837503115E-01   6.0008605921895708E-01  -1.8301058088946297E-03
    1.1814567515155012E+01   9.9985250900630208E-07   9.9989678451899811E-01   7.1416989192576597E-01   6.0047912073375187E-01   6.0045894505555619E-01  -1.7253291418855437E-03
    1.3117734671320978E+01   9.9985250900630208E-07   9.9988124883110807E-01   7.1417438365255215E-01   6.0024239312489358E-01   6.0022902830204006E-01  -1.6345182706168850E-03
    1.4569843596765990E+01   9.9985250900630208E-07   9.9983817219922000E-01   7.1418381499398564E-01   5.9881170535112915E-01   5.9881542608110760E-01  -1.5552275117041664E-03
    1.6187917165747603E+01   9.9985250900630208E-07   9.9983017001072005E-01   7.1419847706385287E-01   5.9759056778337438E-01   5.9760296077590325E-01  -1.4914734723038808E-03
    1.7990923833332499E+01   9.9985250900630208E-07   9.9984391306653331E-01   7.1421014748703360E-01   5.9750034993732470E-01   5.9751367487164297E-01  -1.4263261362209405E-03
    2.0000000000000000E+01   9.9985250900630208E-07   9.9984298266081073E-01   7.1424936497578440E-01   5.9767005804443163E-01   5.9770016684500138E-01  -1.3873000228193607E-03
    5.0000000000000000E-01   2.2096922001847763E-06   1.0628447469292064E+00   7.8225593818995132E-01   4.3051884847237060E-01   4.3285952826208512E-01  -6.0169299822719138E-02
    5.1000096765293290E-01   2.2096922001847771E-06   1.0669097557257279E+00   7.8312760223802069E-01   4.1332754001148869E-01   4.1831158904307636E-01  -2.3843117224558855E-02
    5.2114496734874860E-01   2.2096922001847763E-06   1.0422709122754041E+00   7.6118669837443820E-01   4.8516033288779425E-01   4.8994455421941868E-01  -2.4785426747726748E-02
    5.3356263867117582E-01   2.2096922001847771E-06   1.0374144153827174E+00   7.5376727407580413E-01   5.1931512757518306E-01   5.2320383475908339E-01  -2.4243454808161511E-02
    5.4739955228215886E-01   2.2096922001847763E-06   1.0330336194099694E+00   7.4876622180864882E-01   5.3112343759923142E-01   5.3451816777308769E-01  -2.3306731507347824E-02
    5.6281791642681311E-01   2.2096922001847763E-06   1.0291570248574853E+00   7.4471820109429887E-01   5.3938064817327591E-01   5.4243106033830280E-01  -2.2390642682239406E-02
    5.7999847847848751E-01   2.2096922001847763E-06   1.0259035197344009E+00   7.4131258885929974E-01   5.4635349121476429E-01   5.4910142142232865E-01  -2.1490651069003115E-02
    5.9914264381549465E-01   2.2096922001847771E-06   1.0230970378713324E+00   7.3835671681671267E-01   5.5240519584803560E-01   5.5487683205091842E-01  -2.0621105040744946E-02
    6.2047483686880311E-01   2.2096922001847763E-06   1.0206342979453127E+00   7.3575908481473618E-01   5.5769972241659649E-01   5.5992090768159664E-01  -1.9762983190150563E-02
    6.4424513201893663E-01   2.2096922001847759E-06   1.0184392072439890E+00   7.3344422404225884E-01   5.6239530044530328E-01   5.6438795095025907E-01  -1.8918026128562644E-02
    6.7073218518372335E-01   2.2096922001847771E-06   1.0164662455711275E+00   7.3136740405629486E-01   5.6658630500355933E-01   5.6837055874725706E-01  -1.8085146893841449E-02
    7.0024650046349268E-01   2.2096922001847763E-06   1.0146926002600649E+00   7.2949975593349803E-01   5.7035324025129097E-01   5.7194717525674621E-01  -1.7242461883188294E-02
    7.3313407013816489E-01   2.2096922001847759E-06   1.0130664846708419E+00   7.2779484637340086E-01   5.7375594665779750E-01   5.7517444427280862E-01  -1.6428661873613019E-02
    7.6978043068740498E-01   2.2096922001847763E-06   1.0116008741247922E+00   7.2626017048601499E-01   5.7680932831746778E-01   5.7806849435144114E-01  -1.5618412922724121E-02
    8.1061518238203001E-01   2.2096922001847763E-06   1.0102656181759289E+00   7.2486644882845475E-01   5.7956486484807712E-01   5.8067866172321303E-01  -1.4818533331415071E-02
    8.5611702542920409E-01   2.2096922001847763E-06   1.0090485806041445E+00   7.2360155356761680E-01   5.8204590170712467E-01   5.8302753792020723E-01  -1.4038324251265897E-02
    9.0681937170947302E-01   2.2096922001847763E-06   1.0079511856203001E+00   7.2246250086505648E-01   5.8427629747933085E-01   5.8513833811923754E-01  -1.3267377446749069E-02
    9.6331659789125856E-01   2.2096922001847763E-06   1.0069527334349713E+00   7.2143030245066109E-01   5.8628187353993755E-01   5.8703545862536088E-01  -1.2521573385596672E-02
    1.0262710132272201E+00   2.2096922001847763E-06   1.0060605478098315E+00   7.2050806356273833E-01   5.8807622876022736E-01   5.8873244643474731E-01  -1.1786449670727351E-02
    1.0964206237150107E+00   2.2096922001847754E-06   1.0052513119175128E+00   7.1967574572206106E-01   5.8968310690254855E-01   5.9025178542220080E-01  -1.1078896416831649E-02
    1.1745877836406080E+00   2.2096922001847763E-06   1.0045302688173090E+00   7.1893612782283811E-01   5.9110670478822747E-01   5.9159779828586945E-01  -1.0391181324116212E-02
    1.2616888359251037E+00   2.2096922001847763E-06   1.0038842082352351E+00   7.1827688663151013E-01   5.9236498674411886E-01   5.9278750507982592E-01  -9.7288997168403658E-03
    1.3587448542873868E+00   2.2096922001847763E-06   1.0033081247722861E+00   7.1769249867724305E-01   5.9346299472078379E-01   5.9382536385465878E-01  -9.0965970099234125E-03
    1.4668936131516557E+00   2.2096922001847763E-06   1.0028045042733800E+00   7.1718130261538138E-01   5.9441970302378411E-01   5.9472933847169740E-01  -8.4841951838430484E-03
    1.5874029256213178E+00   2.2096922001847759E-06   1.0023571221386816E+00   7.1672768139041609E-01   5.9525705885718694E-01   5.9551971336141529E-01  -7.9066057956369892E-03
    1.7216855058785454E+00   2.2096922001847767E-06   1.0019731655935249E+00   7.1633483750483518E-01   5.9598266617976292E-01   5.9620357995590090E-01  -7.3561681221519593E-03
    1.8713155302393454E+00   2.2096922001847759E-06   1.0016438964969843E+00   7.1599317542750041E-01   5.9662183172037353E-01   5.9680501128774832E-01  -6.8328596703781238E-03
    2.0380470910071353E+00   2.2096922001847767E-06   1.0013595071485102E+00   7.1569497391991943E-01   5.9718500932973761E-01   5.9733421003294762E-01  -6.3445681178334427E-03
    2.2238347594568233E+00   2.2096922001847754E-06   1.0011211646609377E+00   7.1544126201658387E-01   5.9767604969680244E-01   5.9779531441298717E-01  -5.8835342705246801E-03
    2.4308564990064463E+00   2.2096922001847771E-06   1.0009185420042770E+00   7.1522327689240905E-01   5.9810850907272617E-01   5.9820140248866294E-01  -5.4500410615118426E-03
    2.6615391971843287E+00   2.2096922001847767E-06   1.0007431056502230E+00   7.1503553027837385E-01   5.9848465232599291E-01   5.9855504985347019E-01  -5.0478571063756490E-03
    2.9185871156995344E+00   2.2096922001847763E-06   1.0005921207651909E+00   7.1487708454699539E-01   5.9879729190923936E-01   5.9884960759500983E-01  -4.6733862379205893E-03
    3.2050135921318934E+00   2.2096922001847763E-06   1.0004608946270979E+00   7.1474312421379094E-01   5.9905431264227016E-01   5.9909242913466565E-01  -4.3254587089028547E-03
    3.5241763648761633E+00   2.2096922001847759E-06   1.0003475769447725E+00   7.1463003907238820E-01   5.9927955169992564E-01   5.9930645873267496E-01  -4.0035256685138449E-03
    3.8798169354498384E+00   2.2096922001847763E-06   1.0002482917373325E+00   7.1453515620445485E-01   5.9947763383792019E-01   5.9949641817970689E-01  -3.7066529738532879E-03
    4.2761044296035209E+00   2.2096922001847763E-06   1.0001651981666873E+00   7.1445607675457223E-01   5.9964041045983130E-01   5.9965255462455913E-01  -3.4337670132806282E-03
    4.7176844714116930E+00   2.2096922001847759E-06   1.0000971213965659E+00   7.1439093654933250E-01   5.9979390959748113E-01   5.9980051618141716E-01  -3.1825808873976670E-03
    5.2097336432881285E+00   2.2096922001847759E-06   1.0000394781691828E+00   7.1433733096098473E-01   5.9990970699632440E-01   5.9991227825142446E-01  -2.9518662594458086E-03
    5.7580201703532774E+00   2.2096922001847767E-06   9.9999526431971830E-01   7.1429329631260496E-01   5.9995827220208453E-01   5.9995661960978486E-01  -2.7401360063958285E-03
    6.3689715405481486E+00   2.2096922001847763E-06   9.9996160548975976E-01   7.1425760095008139E-01   5.9999049088892453E-01   5.9998481568521700E-01  -2.5422354393961335E-03
    7.0497498531960590E+00   2.2096922001847759E-06   9.9993022579672908E-01   7.1422533414828460E-01   6.0003661149799359E-01   6.0002752604623100E-01  -2.3641460967531490E-03
    7.8083357793130697E+00   2.2096922001847763E-06   9.9990544213165722E-01   7.1419849191805374E-01   6.0005173821737734E-01   6.0003939648394000E-01  -2.2111746330234832E-03
    8.6536221179224171E+00   2.2096922001847763E-06   9.9989127381695386E-01   7.1418184860320366E-01   6.0008555277865594E-01   6.0007095860712545E-01  -2.0744161394131728E-03
    9.5955180451207642E+00   2.2096922001847763E-06   9.9987900949032316E-01   7.1417338904061800E-01   6.0007851242758981E-01   6.0006447011900155E-01  -1.9474208174722117E-03
    1.0645065277993822E+01   2.2096922001847763E-06   9.9987780232270140E-01   7.1417009176996626E-01   6.0002637315079677E-01   6.0001167789955678E-01  -1.8301058666170319E-03
    1.1814567515155010E+01   2.2096922001847763E-06   9.9989363116596719E-01   7.1416989231208805E-01   6.0036300019391031E-01   6.0034377429436003E-01  -1.7253291782080898E-03
    1.3117734671320969E+01   2.2096922001847763E-06   9.9989631149968039E-01   7.1417438396189703E-01   6.0055219053135422E-01   6.0053429775717315E-01  -1.6345174209140231E-03
    1.4569843596765994E+01   2.2096922001847767E-06   9.9986243351839466E-01   7.1418381527639374E-01   5.9946190451204762E-01   5.9945836081652215E-01  -1.5552263998207282E-03
    1.6187917165747606E+01   2.2096922001847763E-06   9.9984000967092634E-01   7.1419847731902597E-01   5.9799690948588347E-01   5.9800637092984665E-01  -1.4914729146579206E-03
    1.7990923833332499E+01   2.2096922001847763E-06   9.9984100319548608E-01   7.1421014772941760E-01   5.9746674183276349E-01   5.9748093536496794E-01  -1.4263261364805368E-03
    2.0000000000000000E+01   2.2096922001847763E-06   9.9983854528533067E-01   7.1424936506886194E-01   5.9744228919423104E-01   5.9747371115268033E-01  -1.3873001512913017E-03
    5.0000000000000000E-01   3.6736201947302204E-06   1.0632041314166540E+00   7.8225349429672497E-01   4.2790644613922008E-01   4.3017561662861725E-01  -5.9664129623061370E-02
    5.1000096765293290E-01   3.6736201947302212E-06   1.0669104122464868E+00   7.8312523239385778E-01   4.1334146777772524E-01   4.1832464298302252E-01  -2.3848179941474503E-02
    5.2114496734874860E-01   3.6736201947302208E-06   1.0422839210941319E+00   7.6118666326826312E-01   4.8539275781027125E-01   4.9017646333810894E-01  -2.4791954588092382E-02
    5.3356263867117582E-01   3.6736201947302212E-06   1.0374218334443723E+00   7.5376720875267522E-01   5.1937064409491518E-01   5.2325791031230018E-01  -2.4245209321625730E-02
    5.4739955228215909E-01   3.6736201947302204E-06   1.0330343255688830E+00   7.4876615651271483E-01   5.3113032653649161E-01   5.3452487759796163E-01  -2.3307427688870345E-02
    5.6281791642681300E-01   3.6736201947302204E-06   1.0291568847054409E+00   7.4471815637255534E-01   5.3938292229010043E-01   5.4243335248794455E-01  -2.2391111681097097E-02
    5.7999847847848751E-01   3.6736201947302204E-06   1.0259035510684296E+00   7.4131255319178690E-01   5.4635712369501699E-01   5.4910504179746977E-01  -2.1491017311367155E-02
    5.9914264381549454E-01   3.6736201947302204E-06   1.0230971271713711E+00   7.3835668910494401E-01   5.5240894069186974E-01   5.5488055359939004E-01  -2.0621389260275905E-02
    6.2047483686880311E-01   3.6736201947302204E-06   1.0206344192632142E+00   7.3575905887001669E-01   5.5770301100397857E-01   5.5992416236879639E-01  -1.9763207201987012E-02
    6.4424513201893674E-01   3.6736201947302208E-06   1.0184392800363318E+00   7.3344420127903820E-01   5.6239817815081994E-01   5.6439080721429147E-01  -1.8918203177932611E-02
    6.7073218518372335E-01   3.6736201947302200E-06   1.0164662741831800E+00   7.3136738447670369E-01   5.6658876055284624E-01   5.6837300441205529E-01  -1.8085287898273919E-02
    7.0024650046349302E-01   3.6736201947302204E-06   1.0146926040926940E+00   7.2949973872566165E-01   5.7035544980666220E-01   5.7194938173724486E-01  -1.7242575899198573E-02
    7.3313407013816478E-01   3.6736201947302204E-06   1.0130664675390368E+00   7.2779483215792118E-01   5.7375797309146270E-01   5.7517647400452032E-01  -1.6428753360169343E-02
    7.6978043068740498E-01   3.6736201947302204E-06   1.0116008455844678E+00   7.2626015789113862E-01   5.7681118654230801E-01   5.7807035914506766E-01  -1.5618486767478774E-02
    8.1061518238203001E-01   3.6736201947302204E-06   1.0102655892542194E+00   7.2486643795565664E-01   5.7956672014560195E-01   5.8068052423515670E-01  -1.4818592817963029E-02