variables = "X","Y","Z","HL","rh","u","v","w","p","T", "vor_x","vor_y","vor_z","Vor","Q_cri","Mach"
 zone i=          81  j=          81
-0.154482D+01  0.000000D+00  0.100000D+01 1 0.182343D+01  0.138945D+03  0.000000D+00  0.000000D+00  0.135084D+01  0.740750D+00  0.000000D+00  0.000000D+00  0.861974D-02  0.861974D-02  0.188169D+01  0.161554D+01
-0.151580D+01  0.000000D+00  0.100000D+01 1 0.176576D+01  0.140637D+03  0.000000D+00  0.000000D+00  0.129142D+01  0.731291D+00  0.000000D+00  0.000000D+00 -0.200710D+00  0.200710D+00  0.887667D-05  0.164575D+01
-0.148629D+01  0.000000D+00  0.100000D+01 1 0.170964D+01  0.142294D+03  0.000000D+00  0.000000D+00  0.123435D+01  0.721917D+00  0.000000D+00  0.000000D+00 -0.202145D+00  0.202145D+00  0.835689D-05  0.167592D+01
-0.145629D+01  0.000000D+00  0.100000D+01 1 0.165573D+01  0.143898D+03  0.000000D+00  0.000000D+00  0.118022D+01  0.712733D+00  0.000000D+00  0.000000D+00 -0.204231D+00  0.204231D+00  0.771914D-05  0.170570D+01
-0.142586D+01  0.000000D+00  0.100000D+01 1 0.160367D+01  0.145461D+03  0.000000D+00  0.000000D+00  0.112861D+01  0.703694D+00  0.000000D+00  0.000000D+00 -0.205260D+00  0.205260D+00  0.668736D-05  0.173526D+01
-0.139502D+01  0.000000D+00  0.100000D+01 1 0.155389D+01  0.146967D+03  0.000000D+00  0.000000D+00  0.107988D+01  0.694888D+00  0.000000D+00  0.000000D+00 -0.200742D+00  0.200742D+00  0.543525D-05  0.176431D+01
-0.136382D+01  0.000000D+00  0.100000D+01 1 0.150686D+01  0.148403D+03  0.000000D+00  0.000000D+00  0.103442D+01  0.686413D+00  0.000000D+00  0.000000D+00 -0.194750D+00  0.194750D+00  0.424465D-05  0.179250D+01
-0.133230D+01  0.000000D+00  0.100000D+01 1 0.146263D+01  0.149765D+03  0.000000D+00  0.000000D+00  0.992181D+00  0.678297D+00  0.000000D+00  0.000000D+00 -0.186900D+00  0.186900D+00  0.317345D-05  0.181975D+01
-0.130049D+01  0.000000D+00  0.100000D+01 1 0.142124D+01  0.151050D+03  0.000000D+00  0.000000D+00  0.953121D+00  0.670571D+00  0.000000D+00  0.000000D+00 -0.177823D+00  0.177823D+00  0.222966D-05  0.184591D+01
-0.126844D+01  0.000000D+00  0.100000D+01 1 0.138277D+01  0.152256D+03  0.000000D+00  0.000000D+00  0.917214D+00  0.663267D+00  0.000000D+00  0.000000D+00 -0.167083D+00  0.167083D+00  0.126857D-05  0.187086D+01
-0.123619D+01  0.000000D+00  0.100000D+01 1 0.134724D+01  0.153379D+03  0.000000D+00  0.000000D+00  0.884403D+00  0.656413D+00  0.000000D+00  0.000000D+00 -0.155589D+00  0.155589D+00  0.547146D-06  0.189447D+01
-0.120380D+01  0.000000D+00  0.100000D+01 1 0.131463D+01  0.154417D+03  0.000000D+00  0.000000D+00  0.854594D+00  0.650027D+00  0.000000D+00  0.000000D+00 -0.143137D+00  0.143137D+00  0.442201D-07  0.191664D+01
-0.117131D+01  0.000000D+00  0.100000D+01 1 0.128491D+01  0.155372D+03  0.000000D+00  0.000000D+00  0.827684D+00  0.644124D+00  0.000000D+00  0.000000D+00 -0.130527D+00  0.130527D+00 -0.299036D-06  0.193730D+01
-0.113877D+01  0.000000D+00  0.100000D+01 1 0.125806D+01  0.156240D+03  0.000000D+00  0.000000D+00  0.803580D+00  0.638720D+00  0.000000D+00  0.000000D+00 -0.117241D+00  0.117241D+00 -0.541106D-06  0.195636D+01
-0.110622D+01  0.000000D+00  0.100000D+01 1 0.123407D+01  0.157022D+03  0.000000D+00  0.000000D+00  0.782218D+00  0.633833D+00  0.000000D+00  0.000000D+00 -0.103786D+00  0.103786D+00 -0.643423D-06  0.197370D+01
-0.107372D+01  0.000000D+00  0.100000D+01 1 0.121294D+01  0.157714D+03  0.000000D+00  0.000000D+00  0.763547D+00  0.629484D+00  0.000000D+00  0.000000D+00 -0.898851D-01  0.898851D-01 -0.620375D-06  0.198924D+01
-0.104130D+01  0.000000D+00  0.100000D+01 1 0.119470D+01  0.158315D+03  0.000000D+00  0.000000D+00  0.747530D+00  0.625692D+00  0.000000D+00  0.000000D+00 -0.760682D-01  0.760682D-01 -0.565407D-06  0.200286D+01
-0.100903D+01  0.000000D+00  0.100000D+01 1 0.117931D+01  0.158824D+03  0.000000D+00  0.000000D+00  0.734092D+00  0.622467D+00  0.000000D+00  0.000000D+00 -0.624977D-01  0.624977D-01 -0.452254D-06  0.201451D+01
-0.976942D+00  0.000000D+00  0.100000D+01 1 0.116672D+01  0.159243D+03  0.000000D+00  0.000000D+00  0.723154D+00  0.619810D+00  0.000000D+00  0.000000D+00 -0.493396D-01  0.493396D-01 -0.335750D-06  0.202414D+01
-0.945083D+00  0.000000D+00  0.100000D+01 1 0.115679D+01  0.159574D+03  0.000000D+00  0.000000D+00  0.714554D+00  0.617702D+00  0.000000D+00  0.000000D+00 -0.375109D-01  0.375109D-01 -0.227754D-06  0.203181D+01
-0.913499D+00  0.000000D+00  0.100000D+01 1 0.114917D+01  0.159828D+03  0.000000D+00  0.000000D+00  0.707984D+00  0.616079D+00  0.000000D+00  0.000000D+00 -0.277800D-01  0.277800D-01 -0.139321D-06  0.203773D+01
-0.882233D+00  0.000000D+00  0.100000D+01 1 0.114371D+01  0.160011D+03  0.000000D+00  0.000000D+00  0.703285D+00  0.614912D+00  0.000000D+00  0.000000D+00 -0.180440D-01  0.180440D-01 -0.717036D-07  0.204199D+01
-0.851324D+00  0.000000D+00  0.100000D+01 1 0.114009D+01  0.160132D+03  0.000000D+00  0.000000D+00  0.700174D+00  0.614137D+00  0.000000D+00  0.000000D+00 -0.116028D-01  0.116028D-01 -0.334103D-07  0.204482D+01
-0.820812D+00  0.000000D+00  0.100000D+01 1 0.113830D+01  0.160191D+03  0.000000D+00  0.000000D+00  0.698635D+00  0.613754D+00  0.000000D+00  0.000000D+00 -0.268332D-02  0.268332D-02 -0.484514D-08  0.204622D+01
-0.790734D+00  0.000000D+00  0.100000D+01 1 0.113815D+01  0.160195D+03  0.000000D+00  0.000000D+00  0.698510D+00  0.613725D+00  0.000000D+00  0.000000D+00  0.167117D-02  0.167117D-02  0.141413D-08  0.204632D+01
-0.761123D+00  0.000000D+00  0.100000D+01 1 0.113886D+01  0.160171D+03  0.000000D+00  0.000000D+00  0.699119D+00  0.613879D+00  0.000000D+00  0.000000D+00  0.375491D-02  0.375491D-02  0.377810D-09  0.204575D+01
-0.732011D+00  0.000000D+00  0.100000D+01 1 0.114009D+01  0.160129D+03  0.000000D+00  0.000000D+00  0.700185D+00  0.614147D+00  0.000000D+00  0.000000D+00  0.541709D-02  0.541709D-02 -0.239855D-08  0.204477D+01
-0.703429D+00  0.000000D+00  0.100000D+01 1 0.114173D+01  0.160074D+03  0.000000D+00  0.000000D+00  0.701596D+00  0.614501D+00  0.000000D+00  0.000000D+00  0.631385D-02  0.631385D-02 -0.519517D-08  0.204347D+01
-0.675403D+00  0.000000D+00  0.100000D+01 1 0.114359D+01  0.160011D+03  0.000000D+00  0.000000D+00  0.703197D+00  0.614902D+00  0.000000D+00  0.000000D+00  0.654803D-02  0.654803D-02 -0.678265D-08  0.204201D+01
-0.647956D+00  0.000000D+00  0.100000D+01 1 0.114555D+01  0.159945D+03  0.000000D+00  0.000000D+00  0.704881D+00  0.615323D+00  0.000000D+00  0.000000D+00  0.651467D-02  0.651467D-02 -0.746811D-08  0.204047D+01
-0.621112D+00  0.000000D+00  0.100000D+01 1 0.114754D+01  0.159878D+03  0.000000D+00  0.000000D+00  0.706600D+00  0.615751D+00  0.000000D+00  0.000000D+00  0.634308D-02  0.634308D-02 -0.752493D-08  0.203890D+01
-0.594887D+00  0.000000D+00  0.100000D+01 1 0.114945D+01  0.159814D+03  0.000000D+00  0.000000D+00  0.708248D+00  0.616161D+00  0.000000D+00  0.000000D+00  0.555361D-02  0.555361D-02 -0.634426D-08  0.203741D+01
-0.569299D+00  0.000000D+00  0.100000D+01 1 0.115117D+01  0.159757D+03  0.000000D+00  0.000000D+00  0.709732D+00  0.616530D+00  0.000000D+00  0.000000D+00  0.475058D-02  0.475058D-02 -0.501246D-08  0.203607D+01
-0.544361D+00  0.000000D+00  0.100000D+01 1 0.115272D+01  0.159705D+03  0.000000D+00  0.000000D+00  0.711064D+00  0.616860D+00  0.000000D+00  0.000000D+00  0.415361D-02  0.415361D-02 -0.398222D-08  0.203486D+01
-0.520084D+00  0.000000D+00  0.100000D+01 1 0.115409D+01  0.159659D+03  0.000000D+00  0.000000D+00  0.712252D+00  0.617154D+00  0.000000D+00  0.000000D+00  0.348390D-02  0.348390D-02 -0.301206D-08  0.203379D+01
-0.496477D+00  0.000000D+00  0.100000D+01 1 0.115529D+01  0.159619D+03  0.000000D+00  0.000000D+00  0.713291D+00  0.617411D+00  0.000000D+00  0.000000D+00  0.293926D-02  0.293926D-02 -0.222226D-08  0.203286D+01
-0.473545D+00  0.000000D+00  0.100000D+01 1 0.115631D+01  0.159585D+03  0.000000D+00  0.000000D+00  0.714174D+00  0.617629D+00  0.000000D+00  0.000000D+00  0.230383D-02  0.230383D-02 -0.148097D-08  0.203207D+01
-0.451293D+00  0.000000D+00  0.100000D+01 1 0.115716D+01  0.159556D+03  0.000000D+00  0.000000D+00  0.714906D+00  0.617810D+00  0.000000D+00  0.000000D+00  0.186877D-02  0.186877D-02 -0.101458D-08  0.203141D+01
-0.429723D+00  0.000000D+00  0.100000D+01 1 0.115786D+01  0.159533D+03  0.000000D+00  0.000000D+00  0.715509D+00  0.617959D+00  0.000000D+00  0.000000D+00  0.142811D-02  0.142811D-02 -0.649769D-09  0.203087D+01
-0.408833D+00  0.000000D+00  0.100000D+01 1 0.115841D+01  0.159515D+03  0.000000D+00  0.000000D+00  0.715988D+00  0.618077D+00  0.000000D+00  0.000000D+00  0.108241D-02  0.108241D-02 -0.405378D-09  0.203044D+01
-0.388622D+00  0.000000D+00  0.100000D+01 1 0.115884D+01  0.159500D+03  0.000000D+00  0.000000D+00  0.716359D+00  0.618168D+00  0.000000D+00  0.000000D+00  0.777306D-03  0.777306D-03 -0.229484D-09  0.203011D+01
-0.369085D+00  0.000000D+00  0.100000D+01 1 0.115916D+01  0.159490D+03  0.000000D+00  0.000000D+00  0.716634D+00  0.618236D+00  0.000000D+00  0.000000D+00  0.540005D-03  0.540005D-03 -0.123294D-09  0.202986D+01
-0.350217D+00  0.000000D+00  0.100000D+01 1 0.115940D+01  0.159482D+03  0.000000D+00  0.000000D+00  0.716843D+00  0.618287D+00  0.000000D+00  0.000000D+00  0.413178D-03  0.413178D-03 -0.762804D-10  0.202968D+01
-0.332011D+00  0.000000D+00  0.100000D+01 1 0.115958D+01  0.159476D+03  0.000000D+00  0.000000D+00  0.717001D+00  0.618326D+00  0.000000D+00  0.000000D+00  0.275698D-03  0.275698D-03 -0.390092D-10  0.202953D+01
-0.314458D+00  0.000000D+00  0.100000D+01 1 0.115973D+01  0.159471D+03  0.000000D+00  0.000000D+00  0.717128D+00  0.618357D+00  0.000000D+00  0.000000D+00  0.250864D-03  0.250864D-03 -0.267910D-10  0.202942D+01
-0.297547D+00  0.000000D+00  0.100000D+01 1 0.115987D+01  0.159466D+03  0.000000D+00  0.000000D+00  0.717251D+00  0.618388D+00  0.000000D+00  0.000000D+00  0.236290D-03  0.236290D-03 -0.215289D-10  0.202931D+01
-0.281268D+00  0.000000D+00  0.100000D+01 1 0.116002D+01  0.159461D+03  0.000000D+00  0.000000D+00  0.717377D+00  0.618418D+00  0.000000D+00  0.000000D+00  0.235733D-03  0.235733D-03 -0.189241D-10  0.202920D+01
-0.265610D+00  0.000000D+00  0.100000D+01 1 0.116017D+01  0.159456D+03  0.000000D+00  0.000000D+00  0.717510D+00  0.618451D+00  0.000000D+00  0.000000D+00  0.240096D-03  0.240096D-03 -0.185163D-10  0.202908D+01
-0.250558D+00  0.000000D+00  0.100000D+01 1 0.116034D+01  0.159451D+03  0.000000D+00  0.000000D+00  0.717652D+00  0.618486D+00  0.000000D+00  0.000000D+00  0.239777D-03  0.239777D-03 -0.192441D-10  0.202895D+01
-0.236099D+00  0.000000D+00  0.100000D+01 1 0.116051D+01  0.159445D+03  0.000000D+00  0.000000D+00  0.717801D+00  0.618523D+00  0.000000D+00  0.000000D+00  0.238005D-03  0.238005D-03 -0.194758D-10  0.202882D+01
-0.222220D+00  0.000000D+00  0.100000D+01 1 0.116069D+01  0.159439D+03  0.000000D+00  0.000000D+00  0.717957D+00  0.618561D+00  0.000000D+00  0.000000D+00  0.237255D-03  0.237255D-03 -0.190069D-10  0.202868D+01
-0.208905D+00  0.000000D+00  0.100000D+01 1 0.116088D+01  0.159432D+03  0.000000D+00  0.000000D+00  0.718124D+00  0.618603D+00  0.000000D+00  0.000000D+00  0.239423D-03  0.239423D-03 -0.189384D-10  0.202853D+01
-0.196139D+00  0.000000D+00  0.100000D+01 1 0.116109D+01  0.159426D+03  0.000000D+00  0.000000D+00  0.718303D+00  0.618647D+00  0.000000D+00  0.000000D+00  0.241676D-03  0.241676D-03 -0.202244D-10  0.202837D+01
-0.183907D+00  0.000000D+00  0.100000D+01 1 0.116131D+01  0.159418D+03  0.000000D+00  0.000000D+00  0.718494D+00  0.618694D+00  0.000000D+00  0.000000D+00  0.239832D-03  0.239832D-03 -0.210711D-10  0.202820D+01
-0.172192D+00  0.000000D+00  0.100000D+01 1 0.116154D+01  0.159410D+03  0.000000D+00  0.000000D+00  0.718695D+00  0.618743D+00  0.000000D+00  0.000000D+00  0.233562D-03  0.233562D-03 -0.210634D-10  0.202802D+01
-0.160979D+00  0.000000D+00  0.100000D+01 1 0.116178D+01  0.159402D+03  0.000000D+00  0.000000D+00  0.718902D+00  0.618794D+00  0.000000D+00  0.000000D+00  0.223297D-03  0.223297D-03 -0.212344D-10  0.202783D+01
-0.150252D+00  0.000000D+00  0.100000D+01 1 0.116202D+01  0.159394D+03  0.000000D+00  0.000000D+00  0.719114D+00  0.618846D+00  0.000000D+00  0.000000D+00  0.209919D-03  0.209919D-03 -0.211643D-10  0.202764D+01
-0.139994D+00  0.000000D+00  0.100000D+01 1 0.116227D+01  0.159386D+03  0.000000D+00  0.000000D+00  0.719326D+00  0.618898D+00  0.000000D+00  0.000000D+00  0.194614D-03  0.194614D-03 -0.203234D-10  0.202745D+01
-0.130191D+00  0.000000D+00  0.100000D+01 1 0.116251D+01  0.159378D+03  0.000000D+00  0.000000D+00  0.719538D+00  0.618951D+00  0.000000D+00  0.000000D+00  0.177884D-03  0.177884D-03 -0.180020D-10  0.202726D+01
-0.120825D+00  0.000000D+00  0.100000D+01 1 0.116275D+01  0.159370D+03  0.000000D+00  0.000000D+00  0.719746D+00  0.619002D+00  0.000000D+00  0.000000D+00  0.158413D-03  0.158413D-03 -0.153114D-10  0.202708D+01
-0.111881D+00  0.000000D+00  0.100000D+01 1 0.116298D+01  0.159362D+03  0.000000D+00  0.000000D+00  0.719947D+00  0.619051D+00  0.000000D+00  0.000000D+00  0.139045D-03  0.139045D-03 -0.133078D-10  0.202690D+01
-0.103344D+00  0.000000D+00  0.100000D+01 1 0.116321D+01  0.159355D+03  0.000000D+00  0.000000D+00  0.720139D+00  0.619098D+00  0.000000D+00  0.000000D+00  0.139705D-03  0.139705D-03  0.145699D-10  0.202673D+01
-0.952000D-01  0.000000D+00  0.100000D+01 1 0.116342D+01  0.159348D+03  0.000000D+00  0.000000D+00  0.720323D+00  0.619143D+00  0.000000D+00  0.000000D+00  0.160523D-03  0.160523D-03  0.248641D-10  0.202656D+01
-0.874000D-01  0.000000D+00  0.100000D+01 1 0.116362D+01  0.159341D+03  0.000000D+00  0.000000D+00  0.720498D+00  0.619186D+00  0.000000D+00  0.000000D+00  0.175034D-03  0.175034D-03 -0.243455D-13  0.202641D+01
-0.800000D-01  0.000000D+00  0.100000D+01 1 0.116381D+01  0.159334D+03  0.000000D+00  0.000000D+00  0.720664D+00  0.619227D+00  0.000000D+00  0.000000D+00  0.125297D-03  0.125297D-03 -0.741283D-10  0.202626D+01
-0.730000D-01  0.000000D+00  0.100000D+01 1 0.116399D+01  0.159328D+03  0.000000D+00  0.000000D+00  0.720819D+00  0.619265D+00  0.000000D+00  0.000000D+00  0.850833D-04  0.850833D-04  0.661404D-12  0.202612D+01
-0.662000D-01  0.000000D+00  0.100000D+01 1 0.116416D+01  0.159323D+03  0.000000D+00  0.000000D+00  0.720969D+00  0.619302D+00  0.000000D+00  0.000000D+00  0.855075D-04  0.855075D-04 -0.345617D-11  0.202599D+01
-0.598000D-01  0.000000D+00  0.100000D+01 1 0.116432D+01  0.159317D+03  0.000000D+00  0.000000D+00  0.721108D+00  0.619336D+00  0.000000D+00  0.000000D+00  0.384170D-04  0.384170D-04 -0.253532D-10  0.202586D+01
-0.537000D-01  0.000000D+00  0.100000D+01 1 0.116448D+01  0.159312D+03  0.000000D+00  0.000000D+00  0.721239D+00  0.619368D+00  0.000000D+00  0.000000D+00  0.639420D-16  0.639420D-16  0.980151D-35  0.202575D+01
-0.479000D-01  0.000000D+00  0.100000D+01 1 0.116462D+01  0.159307D+03  0.000000D+00  0.000000D+00  0.721363D+00  0.619398D+00  0.000000D+00  0.000000D+00  0.187154D-16  0.187154D-16 -0.748524D-35  0.202564D+01
-0.424000D-01  0.000000D+00  0.100000D+01 1 0.116475D+01  0.159303D+03  0.000000D+00  0.000000D+00  0.721479D+00  0.619427D+00  0.000000D+00  0.000000D+00 -0.232184D-16  0.232184D-16  0.188976D-34  0.202553D+01
-0.371000D-01  0.000000D+00  0.100000D+01 1 0.116488D+01  0.159299D+03  0.000000D+00  0.000000D+00  0.721590D+00  0.619454D+00  0.000000D+00  0.000000D+00 -0.606908D-16  0.606908D-16  0.495054D-34  0.202543D+01
-0.321000D-01  0.000000D+00  0.100000D+01 1 0.116500D+01  0.159295D+03  0.000000D+00  0.000000D+00  0.721693D+00  0.619479D+00  0.000000D+00  0.000000D+00  0.432278D-04  0.432278D-04  0.347171D-10  0.202534D+01
-0.273000D-01  0.000000D+00  0.100000D+01 1 0.116511D+01  0.159291D+03  0.000000D+00  0.000000D+00  0.721791D+00  0.619503D+00  0.000000D+00  0.000000D+00  0.757473D-04  0.757473D-04 -0.462393D-11  0.202526D+01
-0.228000D-01  0.000000D+00  0.100000D+01 1 0.116522D+01  0.159287D+03  0.000000D+00  0.000000D+00  0.721881D+00  0.619526D+00  0.000000D+00  0.000000D+00  0.368481D-04  0.368481D-04 -0.342233D-10  0.202517D+01
-0.185000D-01  0.000000D+00  0.100000D+01 1 0.116531D+01  0.159284D+03  0.000000D+00  0.000000D+00  0.721967D+00  0.619547D+00  0.000000D+00  0.000000D+00  0.000000D+00  0.000000D+00  0.000000D+00  0.202510D+01
-0.144000D-01  0.000000D+00  0.100000D+01 1 0.116541D+01  0.159281D+03  0.000000D+00  0.000000D+00  0.722048D+00  0.619566D+00  0.000000D+00  0.000000D+00  0.000000D+00  0.000000D+00  0.000000D+00  0.202503D+01
-0.105000D-01  0.000000D+00  0.100000D+01 1 0.116550D+01  0.159278D+03  0.000000D+00  0.000000D+00  0.722124D+00  0.619585D+00  0.000000D+00  0.000000D+00  0.000000D+00  0.000000D+00  0.000000D+00  0.202496D+01
-0.684000D-02  0.000000D+00  0.100000D+01 1 0.116558D+01  0.159275D+03  0.000000D+00  0.000000D+00  0.722194D+00  0.619602D+00  0.000000D+00  0.000000D+00  0.000000D+00  0.000000D+00  0.000000D+00  0.202490D+01
-0.333000D-02  0.000000D+00  0.100000D+01 1 0.116565D+01  0.159273D+03  0.000000D+00  0.000000D+00  0.722261D+00  0.619619D+00  0.000000D+00  0.000000D+00  0.000000D+00  0.000000D+00  0.000000D+00  0.202484D+01
 0.000000D+00  0.000000D+00  0.100000D+01 1 0.116573D+01  0.159270D+03  0.173472D-17  0.000000D+00  0.722324D+00  0.619634D+00  0.000000D+00  0.000000D+00 -0.822255D-03  0.822255D-03 -0.846758D-16  0.202478D+01
-0.154499D+01  0.544189D-01  0.100000D+01 1 0.182053D+01  0.139011D+03  0.247280D+01  0.000000D+00  0.134781D+01  0.740264D+00  0.000000D+00  0.000000D+00 -0.220820D+00  0.220820D+00 -0.370785D+01  0.161709D+01
-0.151599D+01  0.549328D-01  0.100000D+01 1 0.176341D+01  0.140685D+03  0.256060D+01  0.000000D+00  0.128899D+01  0.730890D+00  0.000000D+00  0.000000D+00 -0.430149D+00  0.430149D+00 -0.182617D+01  0.164704D+01
-0.148649D+01  0.554504D-01  0.100000D+01 1 0.170796D+01  0.142322D+03  0.262216D+01  0.000000D+00  0.123262D+01  0.721618D+00  0.000000D+00  0.000000D+00 -0.613620D+00  0.613620D+00 -0.488246D+00  0.167689D+01
-0.145651D+01  0.559710D-01  0.100000D+01 1 0.165443D+01  0.143916D+03  0.267259D+01  0.000000D+00  0.117889D+01  0.712495D+00  0.000000D+00  0.000000D+00  0.195566D-01  0.195566D-01 -0.393798D+00  0.170648D+01
-0.142609D+01  0.564927D-01  0.100000D+01 1 0.160285D+01  0.145463D+03  0.270873D+01  0.000000D+00  0.112777D+01  0.703536D+00  0.000000D+00  0.000000D+00 -0.535123D+00  0.535123D+00  0.350144D-01  0.173579D+01
-0.139527D+01  0.570081D-01  0.100000D+01 1 0.155374D+01  0.146950D+03  0.271549D+01  0.000000D+00  0.107971D+01  0.694847D+00  0.000000D+00  0.000000D+00 -0.524266D+00  0.524266D+00 -0.234052D+00  0.176445D+01
-0.136407D+01  0.575205D-01  0.100000D+01 1 0.150734D+01  0.148367D+03  0.270064D+01  0.000000D+00  0.103486D+01  0.686486D+00  0.000000D+00  0.000000D+00 -0.369762D+00  0.369762D+00 -0.924219D+00  0.179227D+01
-0.133256D+01  0.580272D-01  0.100000D+01 1 0.146370D+01  0.149711D+03  0.266674D+01  0.000000D+00  0.993177D+00  0.678482D+00  0.000000D+00  0.000000D+00 -0.271640D+00  0.271640D+00 -0.196588D+01  0.181914D+01
-0.130075D+01  0.585270D-01  0.100000D+01 1 0.142289D+01  0.150980D+03  0.261317D+01  0.000000D+00  0.954642D+00  0.670866D+00  0.000000D+00  0.000000D+00 -0.213469D+00  0.213469D+00 -0.333836D+01  0.184492D+01
-0.126871D+01  0.590188D-01  0.100000D+01 1 0.138496D+01  0.152170D+03  0.254006D+01  0.000000D+00  0.919218D+00  0.663670D+00  0.000000D+00  0.000000D+00 -0.165429D+00  0.165429D+00 -0.493519D+01  0.186949D+01
-0.123647D+01  0.594986D-01  0.100000D+01 1 0.134992D+01  0.153278D+03  0.244852D+01  0.000000D+00  0.886841D+00  0.656918D+00  0.000000D+00  0.000000D+00 -0.121425D+00  0.121425D+00 -0.664816D+01  0.189273D+01
-0.120408D+01  0.599666D-01  0.100000D+01 1 0.131777D+01  0.154303D+03  0.233964D+01  0.000000D+00  0.857429D+00  0.650631D+00  0.000000D+00  0.000000D+00 -0.927459D-01  0.927459D-01 -0.848071D+01  0.191455D+01
-0.117160D+01  0.604231D-01  0.100000D+01 1 0.128851D+01  0.155243D+03  0.221361D+01  0.000000D+00  0.830910D+00  0.644829D+00  0.000000D+00  0.000000D+00 -0.810789D-01  0.810789D-01 -0.105599D+02  0.193484D+01
-0.113905D+01  0.608682D-01  0.100000D+01 1 0.126214D+01  0.156097D+03  0.206964D+01  0.000000D+00  0.807217D+00  0.639533D+00  0.000000D+00  0.000000D+00 -0.753864D-01  0.753864D-01 -0.130444D+02  0.195349D+01
-0.110650D+01  0.612960D-01  0.100000D+01 1 0.123866D+01  0.156863D+03  0.190690D+01  0.000000D+00  0.786285D+00  0.634762D+00  0.000000D+00  0.000000D+00 -0.591305D-01  0.591305D-01 -0.159210D+02  0.197041D+01
-0.107400D+01  0.617097D-01  0.100000D+01 1 0.121805D+01  0.157539D+03  0.172569D+01  0.000000D+00  0.768041D+00  0.630529D+00  0.000000D+00  0.000000D+00 -0.259294D-01  0.259294D-01 -0.190162D+02  0.198552D+01
-0.104158D+01  0.621084D-01  0.100000D+01 1 0.120025D+01  0.158127D+03  0.152827D+01  0.000000D+00  0.752387D+00  0.626839D+00  0.000000D+00  0.000000D+00  0.221435D-01  0.221435D-01 -0.217962D+02  0.199875D+01
-0.100930D+01  0.624926D-01  0.100000D+01 1 0.118521D+01  0.158626D+03  0.131851D+01  0.000000D+00  0.739224D+00  0.623695D+00  0.000000D+00  0.000000D+00  0.672664D-01  0.672664D-01 -0.239563D+02  0.201008D+01
-0.977208D+00  0.628647D-01  0.100000D+01 1 0.117278D+01  0.159040D+03  0.110123D+01  0.000000D+00  0.728406D+00  0.621081D+00  0.000000D+00  0.000000D+00  0.600454D-01  0.600454D-01 -0.249202D+02  0.201954D+01
-0.945343D+00  0.632097D-01  0.100000D+01 1 0.116285D+01  0.159371D+03  0.885639D+00  0.000000D+00  0.719793D+00  0.618980D+00  0.000000D+00  0.000000D+00  0.266290D+00  0.266290D+00 -0.238940D+02  0.202716D+01
-0.913752D+00  0.635454D-01  0.100000D+01 1 0.115520D+01  0.159627D+03  0.677922D+00  0.000000D+00  0.713181D+00  0.617356D+00  0.000000D+00  0.000000D+00  0.401181D+00  0.401181D+00 -0.228655D+02  0.203308D+01
-0.882479D+00  0.638661D-01  0.100000D+01 1 0.114962D+01  0.159814D+03  0.483062D+00  0.000000D+00  0.708367D+00  0.616166D+00  0.000000D+00  0.000000D+00  0.769774D+00  0.769774D+00 -0.204250D+02  0.203741D+01
-0.851562D+00  0.641692D-01  0.100000D+01 1 0.114582D+01  0.159941D+03  0.304615D+00  0.000000D+00  0.705097D+00  0.615356D+00  0.000000D+00  0.000000D+00  0.963446D+00  0.963446D+00 -0.182912D+02  0.204037D+01
-0.821042D+00  0.644557D-01  0.100000D+01 1 0.114362D+01  0.160015D+03  0.149200D+00  0.000000D+00  0.703198D+00  0.614885D+00  0.000000D+00  0.000000D+00  0.143291D+01  0.143291D+01 -0.139169D+02  0.204209D+01
-0.790954D+00  0.647261D-01  0.100000D+01 1 0.114273D+01  0.160044D+03  0.288338D-01  0.000000D+00  0.702437D+00  0.614697D+00  0.000000D+00  0.000000D+00  0.179401D+01  0.179401D+01 -0.870041D+01  0.204277D+01
-0.761334D+00  0.649823D-01  0.100000D+01 1 0.114261D+01  0.160048D+03 -0.573273D-01  0.000000D+00  0.702331D+00  0.614672D+00  0.000000D+00  0.000000D+00  0.178303D+01  0.178303D+01 -0.505135D+01  0.204286D+01
-0.732214D+00  0.652247D-01  0.100000D+01 1 0.114301D+01  0.160034D+03 -0.118189D+00  0.000000D+00  0.702678D+00  0.614760D+00  0.000000D+00  0.000000D+00  0.149666D+01  0.149666D+01 -0.278145D+01  0.204254D+01
-0.703623D+00  0.654531D-01  0.100000D+01 1 0.114384D+01  0.160006D+03 -0.161701D+00  0.000000D+00  0.703398D+00  0.614940D+00  0.000000D+00  0.000000D+00  0.102812D+01  0.102812D+01 -0.146258D+01  0.204188D+01
-0.675587D+00  0.656682D-01  0.100000D+01 1 0.114497D+01  0.159968D+03 -0.191809D+00  0.000000D+00  0.704367D+00  0.615183D+00  0.000000D+00  0.000000D+00  0.632612D+00  0.632612D+00 -0.605133D+00  0.204099D+01
-0.648131D+00  0.658702D-01  0.100000D+01 1 0.114630D+01  0.159923D+03 -0.210146D+00  0.000000D+00  0.705514D+00  0.615470D+00  0.000000D+00  0.000000D+00  0.293986D+00  0.293986D+00 -0.173063D+00  0.203994D+01
-0.621277D+00  0.660602D-01  0.100000D+01 1 0.114777D+01  0.159874D+03 -0.216552D+00  0.000000D+00  0.706780D+00  0.615785D+00  0.000000D+00  0.000000D+00  0.192218D+00  0.192218D+00  0.249717D-02  0.203879D+01
-0.595043D+00  0.662396D-01  0.100000D+01 1 0.114927D+01  0.159823D+03 -0.213555D+00  0.000000D+00  0.708076D+00  0.616107D+00  0.000000D+00  0.000000D+00 -0.553237D-01  0.553237D-01 -0.355261D-01  0.203762D+01
-0.569446D+00  0.664062D-01  0.100000D+01 1 0.115072D+01  0.159774D+03 -0.205906D+00  0.000000D+00  0.709327D+00  0.616418D+00  0.000000D+00  0.000000D+00 -0.196726D+00  0.196726D+00 -0.117481D+00  0.203648D+01
-0.544499D+00  0.665611D-01  0.100000D+01 1 0.115209D+01  0.159729D+03 -0.194234D+00  0.000000D+00  0.710503D+00  0.616710D+00  0.000000D+00  0.000000D+00 -0.214966D+00  0.214966D+00 -0.227392D+00  0.203542D+01
-0.520214D+00  0.667075D-01  0.100000D+01 1 0.115334D+01  0.159687D+03 -0.178876D+00  0.000000D+00  0.711587D+00  0.616978D+00  0.000000D+00  0.000000D+00 -0.199948D+00  0.199948D+00 -0.332295D+00  0.203444D+01
-0.496599D+00  0.668473D-01  0.100000D+01 1 0.115447D+01  0.159649D+03 -0.160836D+00  0.000000D+00  0.712562D+00  0.617219D+00  0.000000D+00  0.000000D+00 -0.167758D+00  0.167758D+00 -0.417762D+00  0.203356D+01
-0.473659D+00  0.669758D-01  0.100000D+01 1 0.115546D+01  0.159616D+03 -0.141140D+00  0.000000D+00  0.713420D+00  0.617431D+00  0.000000D+00  0.000000D+00 -0.126179D+00  0.126179D+00 -0.467269D+00  0.203279D+01
-0.451399D+00  0.670964D-01  0.100000D+01 1 0.115631D+01  0.159588D+03 -0.121094D+00  0.000000D+00  0.714154D+00  0.617613D+00  0.000000D+00  0.000000D+00 -0.115114D+00  0.115114D+00 -0.469151D+00  0.203213D+01
-0.429821D+00  0.672102D-01  0.100000D+01 1 0.115701D+01  0.159564D+03 -0.101616D+00  0.000000D+00  0.714760D+00  0.617762D+00  0.000000D+00  0.000000D+00 -0.116287D+00  0.116287D+00 -0.462940D+00  0.203159D+01
-0.408925D+00  0.673177D-01  0.100000D+01 1 0.115759D+01  0.159545D+03 -0.841325D-01  0.000000D+00  0.715258D+00  0.617885D+00  0.000000D+00  0.000000D+00 -0.221829D+00  0.221829D+00 -0.386797D+00  0.203114D+01
-0.388707D+00  0.674190D-01  0.100000D+01 1 0.115807D+01  0.159529D+03 -0.693665D-01  0.000000D+00  0.715669D+00  0.617986D+00  0.000000D+00  0.000000D+00 -0.254481D+00  0.254481D+00 -0.327046D+00  0.203077D+01
-0.369164D+00  0.675121D-01  0.100000D+01 1 0.115846D+01  0.159516D+03 -0.579610D-01  0.000000D+00  0.716012D+00  0.618071D+00  0.000000D+00  0.000000D+00 -0.379857D+00  0.379857D+00 -0.205201D+00  0.203046D+01
-0.350290D+00  0.676003D-01  0.100000D+01 1 0.115880D+01  0.159505D+03 -0.498872D-01  0.000000D+00  0.716307D+00  0.618144D+00  0.000000D+00  0.000000D+00 -0.365131D+00  0.365131D+00 -0.142166D+00  0.203020D+01
-0.332078D+00  0.676889D-01  0.100000D+01 1 0.115910D+01  0.159495D+03 -0.444868D-01  0.000000D+00  0.716561D+00  0.618206D+00  0.000000D+00  0.000000D+00 -0.408919D+00  0.408919D+00 -0.667877D-01  0.202997D+01
-0.314519D+00  0.677643D-01  0.100000D+01 1 0.115937D+01  0.159486D+03 -0.420293D-01  0.000000D+00  0.716793D+00  0.618264D+00  0.000000D+00  0.000000D+00 -0.420459D+00  0.420459D+00 -0.166632D-01  0.202976D+01
-0.297604D+00  0.678360D-01  0.100000D+01 1 0.115963D+01  0.159477D+03 -0.414678D-01  0.000000D+00  0.717023D+00  0.618320D+00  0.000000D+00  0.000000D+00 -0.350994D+00  0.350994D+00 -0.453257D-03  0.202956D+01
-0.281320D+00  0.679056D-01  0.100000D+01 1 0.115989D+01  0.159468D+03 -0.421794D-01  0.000000D+00  0.717251D+00  0.618376D+00  0.000000D+00  0.000000D+00 -0.308624D+00  0.308624D+00  0.954845D-02  0.202935D+01
-0.265657D+00  0.679680D-01  0.100000D+01 1 0.116016D+01  0.159459D+03 -0.440339D-01  0.000000D+00  0.717478D+00  0.618432D+00  0.000000D+00  0.000000D+00 -0.249833D+00  0.249833D+00  0.758032D-02  0.202915D+01
-0.250601D+00  0.680313D-01  0.100000D+01 1 0.116042D+01  0.159451D+03 -0.466654D-01  0.000000D+00  0.717703D+00  0.618488D+00  0.000000D+00  0.000000D+00 -0.196053D+00  0.196053D+00 -0.157256D-03  0.202895D+01
-0.236138D+00  0.680939D-01  0.100000D+01 1 0.116067D+01  0.159442D+03 -0.498852D-01  0.000000D+00  0.717926D+00  0.618542D+00  0.000000D+00  0.000000D+00 -0.146457D+00  0.146457D+00 -0.113619D-01  0.202875D+01
-0.222255D+00  0.681525D-01  0.100000D+01 1 0.116093D+01  0.159434D+03 -0.535163D-01  0.000000D+00  0.718146D+00  0.618596D+00  0.000000D+00  0.000000D+00 -0.101254D+00  0.101254D+00 -0.238750D-01  0.202855D+01
-0.208937D+00  0.682042D-01  0.100000D+01 1 0.116118D+01  0.159425D+03 -0.572669D-01  0.000000D+00  0.718364D+00  0.618650D+00  0.000000D+00  0.000000D+00 -0.418779D-01  0.418779D-01 -0.334023D-01  0.202836D+01
-0.196168D+00  0.682526D-01  0.100000D+01 1 0.116143D+01  0.159417D+03 -0.609154D-01  0.000000D+00  0.718581D+00  0.618703D+00  0.000000D+00  0.000000D+00  0.166699D-02  0.166699D-02 -0.402482D-01  0.202816D+01
-0.183932D+00  0.683005D-01  0.100000D+01 1 0.116167D+01  0.159409D+03 -0.643547D-01  0.000000D+00  0.718791D+00  0.618755D+00  0.000000D+00  0.000000D+00  0.386956D-01  0.386956D-01 -0.417737D-01  0.202798D+01
-0.172215D+00  0.683443D-01  0.100000D+01 1 0.116191D+01  0.159401D+03 -0.675219D-01  0.000000D+00  0.718997D+00  0.618806D+00  0.000000D+00  0.000000D+00  0.538940D-01  0.538940D-01 -0.411826D-01  0.202779D+01
-0.161000D+00  0.683861D-01  0.100000D+01 1 0.116214D+01  0.159393D+03 -0.703793D-01  0.000000D+00  0.719198D+00  0.618855D+00  0.000000D+00  0.000000D+00  0.675490D-01  0.675490D-01 -0.366172D-01  0.202761D+01
-0.150270D+00  0.684272D-01  0.100000D+01 1 0.116237D+01  0.159385D+03 -0.728811D-01  0.000000D+00  0.719394D+00  0.618903D+00  0.000000D+00  0.000000D+00  0.680217D-01  0.680217D-01 -0.311481D-01  0.202744D+01
-0.140011D+00  0.684675D-01  0.100000D+01 1 0.116259D+01  0.159378D+03 -0.749965D-01  0.000000D+00  0.719583D+00  0.618950D+00  0.000000D+00  0.000000D+00  0.717335D-01  0.717335D-01 -0.236383D-01  0.202727D+01
-0.130205D+00  0.685058D-01  0.100000D+01 1 0.116280D+01  0.159371D+03 -0.767209D-01  0.000000D+00  0.719767D+00  0.618995D+00  0.000000D+00  0.000000D+00  0.623953D-01  0.623953D-01 -0.173268D-01  0.202711D+01
-0.120838D+00  0.685399D-01  0.100000D+01 1 0.116300D+01  0.159364D+03 -0.780504D-01  0.000000D+00  0.719943D+00  0.619038D+00  0.000000D+00  0.000000D+00  0.639932D-01  0.639932D-01 -0.105458D-01  0.202695D+01