 variables = "X","Y","Z","Cp","T","Cfx","Cfy","Cfz","Cf","u","v","w","yplus","PR"
 zone i=          81
  -1.54481600000000       0.000000000000000E+000   1.00000000000000     
   5012.05405283185       0.740750296767228       7.385248564932457E-017
  0.000000000000000E+000  0.000000000000000E+000  7.385248564932457E-017
   138.945439631395        1.25418358388786       0.000000000000000E+000
   624.522682073863        1.35084377772340     
  -1.51580300000000       0.000000000000000E+000   1.00000000000000     
   4163.10827121703       0.731291220926751       0.000000000000000E+000
  0.000000000000000E+000  0.000000000000000E+000  0.000000000000000E+000
   140.636532037169        1.30761273039868       0.000000000000000E+000
   624.616252188931        1.29141757402238     
  -1.48628500000000       0.000000000000000E+000   1.00000000000000     
   3347.80027387461       0.721917113628850       0.000000000000000E+000
  0.000000000000000E+000  0.000000000000000E+000  0.000000000000000E+000
   142.293614474343        1.34815564122207       0.000000000000000E+000
   624.557606964364        1.23434601518033     
  -1.45629200000000       0.000000000000000E+000   1.00000000000000     
   2574.50918683835       0.712733452784887       0.000000000000000E+000
  0.000000000000000E+000  0.000000000000000E+000  0.000000000000000E+000
   143.898352116579        1.37885722635454       0.000000000000000E+000
   624.395889171781        1.18021564000963     
  -1.42586000000000       0.000000000000000E+000   1.00000000000000     
   1837.25114258233       0.703693518680864       0.000000000000000E+000
  0.000000000000000E+000  0.000000000000000E+000  0.000000000000000E+000
   145.460740736979        1.40682518822078       0.000000000000000E+000
   624.108687346398        1.12860757779059     
  -1.39502400000000       0.000000000000000E+000   1.00000000000000     
   1141.16892201312       0.694887806938463       0.000000000000000E+000
  0.000000000000000E+000  0.000000000000000E+000  0.000000000000000E+000
   146.967277532677        1.42208980279778       0.000000000000000E+000
   623.714274278713        1.07988182318054     
  -1.36382200000000       0.000000000000000E+000   1.00000000000000     
   491.765627511308       0.686413441244163       0.000000000000000E+000
  0.000000000000000E+000  0.000000000000000E+000  0.000000000000000E+000
   148.402854100200        1.42251100129815       0.000000000000000E+000
   623.263066907773        1.03442359333956     
  -1.33229600000000       0.000000000000000E+000   1.00000000000000     
  -111.705927191415       0.678297454274873       0.000000000000000E+000
  0.000000000000000E+000  0.000000000000000E+000  0.000000000000000E+000
   149.764990609305        1.41347346905316       0.000000000000000E+000
   622.777619527464       0.992180585229765     
  -1.30048600000000       0.000000000000000E+000   1.00000000000000     
  -669.706440176366       0.670571146222305       0.000000000000000E+000
  0.000000000000000E+000  0.000000000000000E+000  0.000000000000000E+000
   151.050489409543        1.39500450403169       0.000000000000000E+000
   622.279788918409       0.953120549986007     
  -1.26843700000000       0.000000000000000E+000   1.00000000000000     
  -1182.65253550971       0.663267419585640       0.000000000000000E+000
  0.000000000000000E+000  0.000000000000000E+000  0.000000000000000E+000
   152.255873152509        1.36630524625791       0.000000000000000E+000
   621.792910930795       0.917214323924152     
  -1.23619500000000       0.000000000000000E+000   1.00000000000000     
  -1651.38642838814       0.656412905739049       0.000000000000000E+000
  0.000000000000000E+000  0.000000000000000E+000  0.000000000000000E+000
   153.378641170015        1.32757424030945       0.000000000000000E+000
   621.333205514825       0.884402951981436     
  -1.20380400000000       0.000000000000000E+000   1.00000000000000     
  -2077.23412344368       0.650026738371895       0.000000000000000E+000
  0.000000000000000E+000  0.000000000000000E+000  0.000000000000000E+000
   154.417469988182        1.27946017313033       0.000000000000000E+000
   620.922618602783       0.854593613835198     
  -1.17131400000000       0.000000000000000E+000   1.00000000000000     
  -2461.65549136278       0.644124020351378       0.000000000000000E+000
  0.000000000000000E+000  0.000000000000000E+000  0.000000000000000E+000
   155.371583770595        1.22247861969640       0.000000000000000E+000
   620.586941386240       0.827684118539128     
  -1.13877000000000       0.000000000000000E+000   1.00000000000000     
  -2806.00306877755       0.638719586335950       0.000000000000000E+000
  0.000000000000000E+000  0.000000000000000E+000  0.000000000000000E+000
   156.240155593556        1.15657645566688       0.000000000000000E+000
   620.342792241116       0.803579788530588     
  -1.10622300000000       0.000000000000000E+000   1.00000000000000     
  -3111.17810526050       0.633832806135679       0.000000000000000E+000
  0.000000000000000E+000  0.000000000000000E+000  0.000000000000000E+000
   157.021514968232        1.08125048067320       0.000000000000000E+000
   620.203121233661       0.782217536340579     
  -1.07371800000000       0.000000000000000E+000   1.00000000000000     
  -3377.89695984510       0.629483679285378       0.000000000000000E+000
  0.000000000000000E+000  0.000000000000000E+000  0.000000000000000E+000
   157.713727281385       0.995973394301311       0.000000000000000E+000
   620.191014596569       0.763547216837610     
  -1.04130500000000       0.000000000000000E+000   1.00000000000000     
  -3606.70737338285       0.625692273205359       0.000000000000000E+000
  0.000000000000000E+000  0.000000000000000E+000  0.000000000000000E+000
   158.314745654932       0.900876634235623       0.000000000000000E+000
   620.334696915122       0.747530488162731     
  -1.00903100000000       0.000000000000000E+000   1.00000000000000     
  -3798.68042072480       0.622466580382451       0.000000000000000E+000
  0.000000000000000E+000  0.000000000000000E+000  0.000000000000000E+000
   158.824279674242       0.796890609921672       0.000000000000000E+000
   620.652016493537       0.734092375077644     
 -0.976941900000000       0.000000000000000E+000   1.00000000000000     
  -3954.94464627578       0.619810141625460       0.000000000000000E+000
  0.000000000000000E+000  0.000000000000000E+000  0.000000000000000E+000
   159.242648749523       0.685883695587417       0.000000000000000E+000
   621.145976427027       0.723153879475357     
 -0.945083300000000       0.000000000000000E+000   1.00000000000000     
  -4077.79307819956       0.617701684749788       0.000000000000000E+000
  0.000000000000000E+000  0.000000000000000E+000  0.000000000000000E+000
   159.573868560568       0.573079977127384       0.000000000000000E+000
   621.802715465455       0.714554489387139     
 -0.913499200000000       0.000000000000000E+000   1.00000000000000     
  -4171.65162871952       0.616078667246405       0.000000000000000E+000
  0.000000000000000E+000  0.000000000000000E+000  0.000000000000000E+000
   159.828223208140       0.461560633156128       0.000000000000000E+000
   622.615230178361       0.707984390962630     
 -0.882233000000000       0.000000000000000E+000   1.00000000000000     
  -4238.79150144246       0.614911746131226       0.000000000000000E+000
  0.000000000000000E+000  0.000000000000000E+000  0.000000000000000E+000
   160.010735222017       0.356104724321716       0.000000000000000E+000
   623.581163336301       0.703284599952061     
 -0.851324300000000       0.000000000000000E+000   1.00000000000000     
  -4283.23225181917       0.614136549502668       0.000000000000000E+000
  0.000000000000000E+000  0.000000000000000E+000  0.000000000000000E+000
   160.131709544790       0.256137486640774       0.000000000000000E+000
   624.659473303451       0.700173747478669     
 -0.820811900000000       0.000000000000000E+000   1.00000000000000     
  -4305.21037817157       0.613753678311105       0.000000000000000E+000
  0.000000000000000E+000  0.000000000000000E+000  0.000000000000000E+000
   160.191211571341       0.159812586175556       0.000000000000000E+000
   625.852465881250       0.698635278660201     
 -0.790733600000000       0.000000000000000E+000   1.00000000000000     
  -4307.00354740265       0.613724719877538       0.000000000000000E+000
  0.000000000000000E+000  0.000000000000000E+000  0.000000000000000E+000
   160.195336352687       7.555487761418481E-002  0.000000000000000E+000
   627.147572464530       0.698509756816163     
 -0.761122600000000       0.000000000000000E+000   1.00000000000000     
  -4298.30004886695       0.613878740216349       0.000000000000000E+000
  0.000000000000000E+000  0.000000000000000E+000  0.000000000000000E+000
   160.171120308738       9.142416488396955E-003  0.000000000000000E+000
   628.466392432110       0.699119001703286     
 -0.732011300000000       0.000000000000000E+000   1.00000000000000     
  -4283.06997016178       0.614147176699018       0.000000000000000E+000
  0.000000000000000E+000  0.000000000000000E+000  0.000000000000000E+000
   160.129050530018      -4.083775676167424E-002  0.000000000000000E+000
   629.775316201383       0.700185107194493     
 -0.703429300000000       0.000000000000000E+000   1.00000000000000     
  -4262.91775696432       0.614501334580642       0.000000000000000E+000
  0.000000000000000E+000  0.000000000000000E+000  0.000000000000000E+000
   160.073630043252      -7.789994218689640E-002  0.000000000000000E+000
   631.060480652533       0.701595762094292     
 -0.675402900000000       0.000000000000000E+000   1.00000000000000     
  -4240.04542229181       0.614902282848822       0.000000000000000E+000
  0.000000000000000E+000  0.000000000000000E+000  0.000000000000000E+000
   160.010944670029      -0.101605602820724       0.000000000000000E+000
   632.303951055032       0.703196825494102     
 -0.647956300000000       0.000000000000000E+000   1.00000000000000     
  -4215.97929260695       0.615323184895183       0.000000000000000E+000
  0.000000000000000E+000  0.000000000000000E+000  0.000000000000000E+000
   159.945170859277      -0.115780214213903       0.000000000000000E+000
   633.495611335863       0.704881454543352     
 -0.621111700000000       0.000000000000000E+000   1.00000000000000     
  -4191.43342816833       0.615751408628992       0.000000000000000E+000
  0.000000000000000E+000  0.000000000000000E+000  0.000000000000000E+000
   159.878205761896      -0.123706046974953       0.000000000000000E+000
   634.632998591226       0.706599665024795     
 -0.594887000000000       0.000000000000000E+000   1.00000000000000     
  -4167.88193220526       0.616161391748245       0.000000000000000E+000
  0.000000000000000E+000  0.000000000000000E+000  0.000000000000000E+000
   159.814101776183      -0.124431470709901       0.000000000000000E+000
   635.704730693854       0.708248269714134     
 -0.569299000000000       0.000000000000000E+000   1.00000000000000     
  -4146.68810523899       0.616529789980378       0.000000000000000E+000
  0.000000000000000E+000  0.000000000000000E+000  0.000000000000000E+000
   159.756562127901      -0.120404995392780       0.000000000000000E+000
   636.696963320878       0.709731837576508     
 -0.544360900000000       0.000000000000000E+000   1.00000000000000     
  -4127.65569883996       0.616860140050479       0.000000000000000E+000
  0.000000000000000E+000  0.000000000000000E+000  0.000000000000000E+000
   159.704960431505      -0.114135555611175       0.000000000000000E+000
   637.614912768684       0.711064106001752     
 -0.520084000000000       0.000000000000000E+000   1.00000000000000     
  -4110.68822285670       0.617154231522281       0.000000000000000E+000
  0.000000000000000E+000  0.000000000000000E+000  0.000000000000000E+000
   159.659007145463      -0.106394628965747       0.000000000000000E+000
   638.470800479070       0.712251829300353     
 -0.496477000000000       0.000000000000000E+000   1.00000000000000     
  -4095.84177804281       0.617411244319897       0.000000000000000E+000
  0.000000000000000E+000  0.000000000000000E+000  0.000000000000000E+000
   159.618829891641      -9.753109217369213E-002  0.000000000000000E+000
   639.267500375060       0.713291080419627     
 -0.473545300000000       0.000000000000000E+000   1.00000000000000     
  -4083.23265690992       0.617629276534713       0.000000000000000E+000
  0.000000000000000E+000  0.000000000000000E+000  0.000000000000000E+000
   159.584733177042      -8.778642796822406E-002  0.000000000000000E+000
   639.999134481557       0.714173718883898     
 -0.451293300000000       0.000000000000000E+000   1.00000000000000     
  -4072.77583600765       0.617809924355427       0.000000000000000E+000
  0.000000000000000E+000  0.000000000000000E+000  0.000000000000000E+000
   159.556467885871      -7.769931184505796E-002  0.000000000000000E+000
   640.669975692329       0.714905696334591     
 -0.429722600000000       0.000000000000000E+000   1.00000000000000     
  -4064.16257214302       0.617958595120270       0.000000000000000E+000
  0.000000000000000E+000  0.000000000000000E+000  0.000000000000000E+000
   159.533206192289      -6.761391310594844E-002  0.000000000000000E+000
   641.290808515295       0.715508624794848     
 -0.408833000000000       0.000000000000000E+000   1.00000000000000     
  -4057.31354672238       0.618076732321463       0.000000000000000E+000
  0.000000000000000E+000  0.000000000000000E+000  0.000000000000000E+000
   159.514725929147      -5.785233793983255E-002  0.000000000000000E+000
   641.864774930686       0.715988056566128     
 -0.388622000000000       0.000000000000000E+000   1.00000000000000     
  -4052.01120898320       0.618168127014160       0.000000000000000E+000
  0.000000000000000E+000  0.000000000000000E+000  0.000000000000000E+000
   159.500434167538      -4.849128555692196E-002  0.000000000000000E+000
   642.391995104921       0.716359220201550     
 -0.369085300000000       0.000000000000000E+000   1.00000000000000     
  -4048.08127888820       0.618235822917860       0.000000000000000E+000
  0.000000000000000E+000  0.000000000000000E+000  0.000000000000000E+000
   159.489853785186      -3.980481739348520E-002  0.000000000000000E+000
   642.873813717965       0.716634315303515     
 -0.350217300000000       0.000000000000000E+000   1.00000000000000     
  -4045.10071947075       0.618287150426468       0.000000000000000E+000
  0.000000000000000E+000  0.000000000000000E+000  0.000000000000000E+000
   159.481834465435      -3.250286384788077E-002  0.000000000000000E+000
   643.325949336243       0.716842954459183     
 -0.332011200000000       0.000000000000000E+000   1.00000000000000     
  -4042.84456747939       0.618325980210493       0.000000000000000E+000
  0.000000000000000E+000  0.000000000000000E+000  0.000000000000000E+000
   159.475772495517      -2.636839511770223E-002  0.000000000000000E+000
   643.751155497330       0.717000885095889     
 -0.314457700000000       0.000000000000000E+000   1.00000000000000     
  -4041.03026521410       0.618357201304240       0.000000000000000E+000
  0.000000000000000E+000  0.000000000000000E+000  0.000000000000000E+000
   159.470893679650      -2.190563271712156E-002  0.000000000000000E+000
   644.136505542564       0.717127886252297     
 -0.297547200000000       0.000000000000000E+000   1.00000000000000     
  -4039.26869329875       0.618387524735878       0.000000000000000E+000
  0.000000000000000E+000  0.000000000000000E+000  0.000000000000000E+000
   159.466150040092      -1.923605224021224E-002  0.000000000000000E+000
   644.493737290984       0.717251196284271     
 -0.281268500000000       0.000000000000000E+000   1.00000000000000     
  -4037.47520874446       0.618418418608374       0.000000000000000E+000
  0.000000000000000E+000  0.000000000000000E+000  0.000000000000000E+000
   159.461311205104      -1.791845730664192E-002  0.000000000000000E+000
   644.833383439304       0.717376740200933     
 -0.265609700000000       0.000000000000000E+000   1.00000000000000     
  -4035.57167456765       0.618451219002781       0.000000000000000E+000
  0.000000000000000E+000  0.000000000000000E+000  0.000000000000000E+000
   159.456170440061      -1.786844725433910E-002  0.000000000000000E+000
   645.155275646221       0.717509987591041     
 -0.250558000000000       0.000000000000000E+000   1.00000000000000     
  -4033.54797250079       0.618486100413984       0.000000000000000E+000
  0.000000000000000E+000  0.000000000000000E+000  0.000000000000000E+000
   159.450700751485      -1.843538728129937E-002  0.000000000000000E+000
   645.470549543540       0.717651646733309     
 -0.236099500000000       0.000000000000000E+000   1.00000000000000     
  -4031.41973764840       0.618522788811507       0.000000000000000E+000
  0.000000000000000E+000  0.000000000000000E+000  0.000000000000000E+000
   159.444945360598      -1.935558276828750E-002  0.000000000000000E+000
   645.781480602099       0.717800623170439     
 -0.222220200000000       0.000000000000000E+000   1.00000000000000     
  -4029.17899601942       0.618561420710799       0.000000000000000E+000
  0.000000000000000E+000  0.000000000000000E+000  0.000000000000000E+000
   159.438883658924      -2.060372016132015E-002  0.000000000000000E+000
   646.074933753848       0.717957475081796     
 -0.208905100000000       0.000000000000000E+000   1.00000000000000     
  -4026.79489711022       0.618602525912494       0.000000000000000E+000
  0.000000000000000E+000  0.000000000000000E+000  0.000000000000000E+000
   159.432432590789      -2.221709240256394E-002  0.000000000000000E+000
   646.344520060478       0.718124362002598     
 -0.196139100000000       0.000000000000000E+000   1.00000000000000     
  -4024.23671669742       0.618646628912545       0.000000000000000E+000
  0.000000000000000E+000  0.000000000000000E+000  0.000000000000000E+000
   159.425509839303      -2.422547995850970E-002  0.000000000000000E+000
   646.598854173442       0.718303434628444     
 -0.183906600000000       0.000000000000000E+000   1.00000000000000     
  -4021.50837584514       0.618693657298781       0.000000000000000E+000
  0.000000000000000E+000  0.000000000000000E+000  0.000000000000000E+000
   159.418127213583      -2.654243586979980E-002  0.000000000000000E+000
   646.844601042184       0.718494418484852     
 -0.172191900000000       0.000000000000000E+000   1.00000000000000     
  -4018.64259966598       0.618743043329682       0.000000000000000E+000
  0.000000000000000E+000  0.000000000000000E+000  0.000000000000000E+000
   159.410374069967      -2.901634563367776E-002  0.000000000000000E+000
   647.078926754758       0.718695022813977     
 -0.160979000000000       0.000000000000000E+000   1.00000000000000     
  -4015.67965891643       0.618794090277156       0.000000000000000E+000
  0.000000000000000E+000  0.000000000000000E+000  0.000000000000000E+000
   159.402359858948      -3.151914405073636E-002  0.000000000000000E+000
   647.303467832051       0.718902428662913     
 -0.150251900000000       0.000000000000000E+000   1.00000000000000     
  -4012.66074215187       0.618846086852736       0.000000000000000E+000
  0.000000000000000E+000  0.000000000000000E+000  0.000000000000000E+000
   159.394196367976      -3.394783111985595E-002  0.000000000000000E+000
   647.523469841757       0.719113752832834     
 -0.139994500000000       0.000000000000000E+000   1.00000000000000     
  -4009.62254661770       0.618898410586580       0.000000000000000E+000
  0.000000000000000E+000  0.000000000000000E+000  0.000000000000000E+000
   159.385980341891      -3.618711248736905E-002  0.000000000000000E+000
   647.738802277308       0.719326426516603     
 -0.130190900000000       0.000000000000000E+000   1.00000000000000     
  -4006.59359771754       0.618950535870162       0.000000000000000E+000
  0.000000000000000E+000  0.000000000000000E+000  0.000000000000000E+000
   159.377796326395      -3.819008031811445E-002  0.000000000000000E+000
   647.943320503684       0.719538452936004     
 -0.120825100000000       0.000000000000000E+000   1.00000000000000     
  -4003.62433176674       0.619001630652555       0.000000000000000E+000
  0.000000000000000E+000  0.000000000000000E+000  0.000000000000000E+000
   159.369775199598      -3.989861140996274E-002  0.000000000000000E+000
   648.132907929557       0.719746301549020     
 -0.111881400000000       0.000000000000000E+000   1.00000000000000     
  -4000.75949706309       0.619050910707304       0.000000000000000E+000
  0.000000000000000E+000  0.000000000000000E+000  0.000000000000000E+000
   159.362038685337      -4.125967822197891E-002  0.000000000000000E+000
   648.311426524543       0.719946839974861     
 -0.103344300000000       0.000000000000000E+000   1.00000000000000     
  -3998.00921687942       0.619098205943398       0.000000000000000E+000
  0.000000000000000E+000  0.000000000000000E+000  0.000000000000000E+000
   159.354613450995      -4.232841220093886E-002  0.000000000000000E+000
   648.429931606790       0.720139359584439     
 -9.520000000000001E-002  0.000000000000000E+000   1.00000000000000     
  -3995.38550248530       0.619143309702702       0.000000000000000E+000
  0.000000000000000E+000  0.000000000000000E+000  0.000000000000000E+000
   159.347532220448      -4.313300664192050E-002  0.000000000000000E+000
   648.583237350894       0.720323019588900     
 -8.740000000000001E-002  0.000000000000000E+000   1.00000000000000     
  -3992.87908052445       0.619186390898210       0.000000000000000E+000
  0.000000000000000E+000  0.000000000000000E+000  0.000000000000000E+000
   159.340768433796      -4.372407300015435E-002  0.000000000000000E+000
   648.788526818540       0.720498469123172     
 -8.000000000000000E-002  0.000000000000000E+000   1.00000000000000     
  -3990.51517292201       0.619227007590448       0.000000000000000E+000
  0.000000000000000E+000  0.000000000000000E+000  0.000000000000000E+000
   159.334391757671      -4.411974450560198E-002  0.000000000000000E+000
   649.096766878080       0.720663942652524     
 -7.300000000000000E-002  0.000000000000000E+000   1.00000000000000     
  -3988.29509759977       0.619265150141330       0.000000000000000E+000
  0.000000000000000E+000  0.000000000000000E+000  0.000000000000000E+000
   159.328403028972      -4.436189135350347E-002  0.000000000000000E+000
   649.086346060516       0.720819347922434     
 -6.619999999999999E-002  0.000000000000000E+000   1.00000000000000     
  -3986.16332158883       0.619301769926735       0.000000000000000E+000
  0.000000000000000E+000  0.000000000000000E+000  0.000000000000000E+000
   159.322652948193      -4.446975407352958E-002  0.000000000000000E+000
   649.222070845453       0.720968572240659     
 -5.980000000000000E-002  0.000000000000000E+000   1.00000000000000     
  -3984.17630389404       0.619335887433919       0.000000000000000E+000
  0.000000000000000E+000  0.000000000000000E+000  0.000000000000000E+000
   159.317295528864      -4.445694112396185E-002  0.000000000000000E+000
   649.530280784455       0.721107663476925     
 -5.370000000000000E-002  0.000000000000000E+000   1.00000000000000     
  -3982.30046959495       0.619368108501570       0.000000000000000E+000
  0.000000000000000E+000  0.000000000000000E+000  0.000000000000000E+000
   159.312235356009      -4.439598039237337E-002  0.000000000000000E+000
   649.474150964336       0.721238971875626     
 -4.790000000000000E-002  0.000000000000000E+000   1.00000000000000     
  -3980.53351502465       0.619398438766932       0.000000000000000E+000
  0.000000000000000E+000  0.000000000000000E+000  0.000000000000000E+000
   159.307472630319      -4.429276566320121E-002  0.000000000000000E+000
   649.590547976434       0.721362658693440     
 -4.240000000000000E-002  0.000000000000000E+000   1.00000000000000     
  -3978.86544560087       0.619427076446501       0.000000000000000E+000
  0.000000000000000E+000  0.000000000000000E+000  0.000000000000000E+000
   159.302975241638      -4.414780343298018E-002  0.000000000000000E+000
   649.701741213567       0.721479423551116     
 -3.710000000000000E-002  0.000000000000000E+000   1.00000000000000     
  -3977.29054907405       0.619454111070919       0.000000000000000E+000
  0.000000000000000E+000  0.000000000000000E+000  0.000000000000000E+000
   159.298729331485      -4.396242993323782E-002  0.000000000000000E+000
   649.806923734861       0.721589666306116     
 -3.210000000000000E-002  0.000000000000000E+000   1.00000000000000     
  -3975.81251642563       0.619479472404411       0.000000000000000E+000
  0.000000000000000E+000  0.000000000000000E+000  0.000000000000000E+000
   159.294746217163      -4.374154436558859E-002  0.000000000000000E+000
   649.679193016086       0.721693128589744     
 -2.730000000000000E-002  0.000000000000000E+000   1.00000000000000     
  -3974.42016442733       0.619503376065797       0.000000000000000E+000
  0.000000000000000E+000  0.000000000000000E+000  0.000000000000000E+000
   159.290991150599      -4.349351311084243E-002  0.000000000000000E+000
   650.002708097010       0.721790593227965     
 -2.280000000000000E-002  0.000000000000000E+000   1.00000000000000     
  -3973.12284692270       0.619525646248284       0.000000000000000E+000
  0.000000000000000E+000  0.000000000000000E+000  0.000000000000000E+000
   159.287492335076      -4.322656444583080E-002  0.000000000000000E+000
   650.347748145694       0.721881405451742     
 -1.850000000000000E-002  0.000000000000000E+000   1.00000000000000     
  -3971.90076892825       0.619546606603868       0.000000000000000E+000
  0.000000000000000E+000  0.000000000000000E+000  0.000000000000000E+000
   159.284199466346      -4.294591408163801E-002  0.000000000000000E+000
   650.178935590491       0.721966950909897     
 -1.440000000000000E-002  0.000000000000000E+000   1.00000000000000     
  -3970.74641887419       0.619566404891871       0.000000000000000E+000
  0.000000000000000E+000  0.000000000000000E+000  0.000000000000000E+000
   159.281088485633      -4.265624630587968E-002  0.000000000000000E+000
   650.260495278499       0.722047755412305     
 -1.050000000000000E-002  0.000000000000000E+000   1.00000000000000     
  -3969.66359357380       0.619584986188821       0.000000000000000E+000
  0.000000000000000E+000  0.000000000000000E+000  0.000000000000000E+000
   159.278168581824      -4.236617005344933E-002  0.000000000000000E+000
   650.339418535746       0.722123553182041     
 -6.840000000000000E-003  0.000000000000000E+000   1.00000000000000     
  -3968.65544541194       0.619602287474221       0.000000000000000E+000
  0.000000000000000E+000  0.000000000000000E+000  0.000000000000000E+000
   159.275449157840      -4.207880334231037E-002  0.000000000000000E+000
   650.423565911204       0.722194123552170     
 -3.330000000000000E-003  0.000000000000000E+000   1.00000000000000     
  -3967.69887138937       0.619618686951856       0.000000000000000E+000
  0.000000000000000E+000  0.000000000000000E+000  0.000000000000000E+000
   159.272872106235      -4.179770426042925E-002  0.000000000000000E+000
   650.515590289357       0.722261083732610     
  0.000000000000000E+000  0.000000000000000E+000   1.00000000000000     
  -3966.79868008684       0.619634128044141       0.000000000000000E+000
  0.000000000000000E+000  0.000000000000000E+000  0.000000000000000E+000
   159.270444854280      -4.151963779544646E-002  0.000000000000000E+000
   650.589453444091       0.722324097122714     
 zone i=          81
  -1.54617900000000       0.428995300000000        1.00000000000000     
   4141.62127560327        1.27969231193793        81.2031671057607     
   9.39688563848679       0.000000000000000E+000   90.6000527442475     
   9.63887902724410        1.12563077149875       0.000000000000000E+000
   2.15522968916912        1.28991348435503     
  -1.51727600000000       0.432309600000000        1.00000000000000     
   3715.26259194655        1.27861908729560        80.2305335908486     
   9.12964120190082       0.000000000000000E+000   89.3601747927494     
   9.62170670566706        1.10496456978559       0.000000000000000E+000
   2.13986186984153        1.26006837700732     
  -1.48786200000000       0.435630900000000        1.00000000000000     
   3277.73246856892        1.27758250191798        79.3233738101065     
   8.88786603706126       0.000000000000000E+000   88.2112398471677     
   9.61037688596321        1.08677141233633       0.000000000000000E+000
   2.12389381393170        1.22944126889246     
  -1.45796900000000       0.438954300000000        1.00000000000000     
   2837.12964010719        1.27631678242025        78.2014658255981     
   8.61580827210758       0.000000000000000E+000   86.8172740977057     
   9.57249277111610        1.06447798601995       0.000000000000000E+000
   2.10456486787984        1.19859907142538     
  -1.42762900000000       0.442266600000000        1.00000000000000     
   2463.62818196272        1.27516623515755        77.0411692009056     
   8.26847338229314       0.000000000000000E+000   85.3096425831987     
   9.52744616367264        1.03227216635147       0.000000000000000E+000
   2.08785196826427        1.17245396980052     
  -1.39687400000000       0.445510600000000        1.00000000000000     
   2125.05337487119        1.27422315823159        76.1481561084781     
   7.93311126627640       0.000000000000000E+000   84.0812673747545     
   9.51149283940919        1.00053145535277       0.000000000000000E+000
   2.07565929962974        1.14875373370772     
  -1.36574400000000       0.448713300000000        1.00000000000000     
   1759.10381600430        1.27311015099804        75.2230371719225     