 variables=iter,cl,cd,cm,clim,cdim,cmim,clip,cdip,cmip,cljm,cdjm,cmjm,cljp,cdjp,cmjp
 zone t="coefhist",f=point
       1  1.983325E+03  2.668543E+01 -2.970020E+04 -8.584817E-09 -1.640085E+02 -3.095247E+02  0.000000E+00  0.000000E+00  0.000000E+00  0.000000E+00  0.000000E+00  0.000000E+00  6.278119E+02  3.559339E-04 -1.585334E+04
      11  1.983302E+03  1.399092E+02 -2.948189E+04  8.997562E-07 -1.392131E+02 -2.617100E+02  0.000000E+00  0.000000E+00  0.000000E+00  0.000000E+00  0.000000E+00  0.000000E+00  6.248755E+02  3.487964E-04 -1.579268E+04
      21  1.982926E+03  1.414190E+02 -2.946124E+04  2.323407E-06 -1.390344E+02 -2.603060E+02  0.000000E+00  0.000000E+00  0.000000E+00  0.000000E+00  0.000000E+00  0.000000E+00  6.218296E+02  3.414442E-04 -1.572911E+04
      31  1.982378E+03  1.371036E+02 -2.944738E+04  3.670920E-06 -1.399273E+02 -2.611700E+02  0.000000E+00  0.000000E+00  0.000000E+00  0.000000E+00  0.000000E+00  0.000000E+00  6.187769E+02  3.342381E-04 -1.566468E+04
      41  1.981815E+03  1.330367E+02 -2.942999E+04  4.975538E-06 -1.408397E+02 -2.622466E+02  0.000000E+00  0.000000E+00  0.000000E+00  0.000000E+00  0.000000E+00  0.000000E+00  6.157219E+02  3.270651E-04 -1.559950E+04
      51  1.981492E+03  1.288362E+02 -2.941378E+04  6.246760E-06 -1.417995E+02 -2.635893E+02  0.000000E+00  0.000000E+00  0.000000E+00  0.000000E+00  0.000000E+00  0.000000E+00  6.126660E+02  3.199033E-04 -1.553359E+04
      61  1.980868E+03  1.250458E+02 -2.939307E+04  7.411742E-06 -1.427059E+02 -2.650810E+02  0.000000E+00  0.000000E+00  0.000000E+00  0.000000E+00  0.000000E+00  0.000000E+00  6.096097E+02  3.127547E-04 -1.546695E+04
      71  1.980201E+03  1.213586E+02 -2.937247E+04  8.429083E-06 -1.435319E+02 -2.667260E+02  0.000000E+00  0.000000E+00  0.000000E+00  0.000000E+00  0.000000E+00  0.000000E+00  6.065534E+02  3.056157E-04 -1.539959E+04
      81  1.979825E+03  1.180612E+02 -2.935405E+04  9.316699E-06 -1.442713E+02 -2.684686E+02  0.000000E+00  0.000000E+00  0.000000E+00  0.000000E+00  0.000000E+00  0.000000E+00  6.034980E+02  2.984827E-04 -1.533153E+04
      91  1.979248E+03  1.149275E+02 -2.932761E+04  1.014694E-05 -1.449941E+02 -2.703665E+02  0.000000E+00  0.000000E+00  0.000000E+00  0.000000E+00  0.000000E+00  0.000000E+00  6.004577E+02  2.913565E-04 -1.526308E+04
     101  1.978375E+03  1.119677E+02 -2.929314E+04  1.088856E-05 -1.456742E+02 -2.723786E+02  0.000000E+00  0.000000E+00  0.000000E+00  0.000000E+00  0.000000E+00  0.000000E+00  5.975437E+02  2.842638E-04 -1.519658E+04
     111  1.977658E+03  1.091524E+02 -2.926177E+04  1.144574E-05 -1.462928E+02 -2.744791E+02  0.000000E+00  0.000000E+00  0.000000E+00  0.000000E+00  0.000000E+00  0.000000E+00  5.951691E+02  2.773532E-04 -1.514076E+04
     121  1.977640E+03  1.065039E+02 -2.924334E+04  1.167003E-05 -1.468603E+02 -2.766201E+02  0.000000E+00  0.000000E+00  0.000000E+00  0.000000E+00  0.000000E+00  0.000000E+00  5.939788E+02  2.710204E-04 -1.510938E+04
     131  1.978420E+03  1.039806E+02 -2.923828E+04  1.143212E-05 -1.474148E+02 -2.787752E+02  0.000000E+00  0.000000E+00  0.000000E+00  0.000000E+00  0.000000E+00  0.000000E+00  5.939866E+02  2.656842E-04 -1.510318E+04
     141  1.979442E+03  1.015401E+02 -2.923672E+04  1.079721E-05 -1.479884E+02 -2.808952E+02  0.000000E+00  0.000000E+00  0.000000E+00  0.000000E+00  0.000000E+00  0.000000E+00  5.944744E+02  2.612764E-04 -1.510741E+04
     151  1.980086E+03  9.916832E+01 -2.923091E+04  9.909519E-06 -1.485691E+02 -2.828811E+02  0.000000E+00  0.000000E+00  0.000000E+00  0.000000E+00  0.000000E+00  0.000000E+00  5.950129E+02  2.574669E-04 -1.511308E+04
     161  1.979976E+03  9.691221E+01 -2.921517E+04  8.822794E-06 -1.491362E+02 -2.846828E+02  0.000000E+00  0.000000E+00  0.000000E+00  0.000000E+00  0.000000E+00  0.000000E+00  5.954641E+02  2.540773E-04 -1.511717E+04
     171  1.979066E+03  9.478045E+01 -2.918490E+04  7.564940E-06 -1.496507E+02 -2.862586E+02  0.000000E+00  0.000000E+00  0.000000E+00  0.000000E+00  0.000000E+00  0.000000E+00  5.955713E+02  2.509515E-04 -1.511413E+04
     181  1.977894E+03  9.276843E+01 -2.914415E+04  6.198531E-06 -1.501042E+02 -2.875899E+02  0.000000E+00  0.000000E+00  0.000000E+00  0.000000E+00  0.000000E+00  0.000000E+00  5.951450E+02  2.478906E-04 -1.509976E+04
     191  1.977231E+03  9.084883E+01 -2.910512E+04  4.786077E-06 -1.505207E+02 -2.886917E+02  0.000000E+00  0.000000E+00  0.000000E+00  0.000000E+00  0.000000E+00  0.000000E+00  5.943240E+02  2.447739E-04 -1.507673E+04
     201  1.977356E+03  8.903162E+01 -2.907709E+04  3.329960E-06 -1.509205E+02 -2.895934E+02  0.000000E+00  0.000000E+00  0.000000E+00  0.000000E+00  0.000000E+00  0.000000E+00  5.933936E+02  2.416286E-04 -1.505096E+04
     211  1.977985E+03  8.733232E+01 -2.905839E+04  1.813902E-06 -1.513026E+02 -2.903040E+02  0.000000E+00  0.000000E+00  0.000000E+00  0.000000E+00  0.000000E+00  0.000000E+00  5.924263E+02  2.385150E-04 -1.502399E+04
     221  1.978599E+03  8.575812E+01 -2.903895E+04  2.554575E-07 -1.516491E+02 -2.908083E+02  0.000000E+00  0.000000E+00  0.000000E+00  0.000000E+00  0.000000E+00  0.000000E+00  5.913366E+02  2.354160E-04 -1.499404E+04
     231  1.978866E+03  8.436686E+01 -2.901083E+04 -1.298294E-06 -1.519250E+02 -2.910873E+02  0.000000E+00  0.000000E+00  0.000000E+00  0.000000E+00  0.000000E+00  0.000000E+00  5.901184E+02  2.322895E-04 -1.496097E+04
     241  1.978894E+03  8.326886E+01 -2.897516E+04 -2.799237E-06 -1.520887E+02 -2.911351E+02  0.000000E+00  0.000000E+00  0.000000E+00  0.000000E+00  0.000000E+00  0.000000E+00  5.888502E+02  2.291367E-04 -1.492638E+04
     251  1.978972E+03  8.258276E+01 -2.893706E+04 -4.194094E-06 -1.521207E+02 -2.909744E+02  0.000000E+00  0.000000E+00  0.000000E+00  0.000000E+00  0.000000E+00  0.000000E+00  5.875895E+02  2.259862E-04 -1.489150E+04
     261  1.979229E+03  8.235698E+01 -2.889923E+04 -5.439425E-06 -1.520262E+02 -2.906467E+02  0.000000E+00  0.000000E+00  0.000000E+00  0.000000E+00  0.000000E+00  0.000000E+00  5.863206E+02  2.228573E-04 -1.485602E+04
     271  1.979606E+03  8.255072E+01 -2.886088E+04 -6.528585E-06 -1.518426E+02 -2.902015E+02  0.000000E+00  0.000000E+00  0.000000E+00  0.000000E+00  0.000000E+00  0.000000E+00  5.849585E+02  2.197310E-04 -1.481814E+04
     281  1.979960E+03  8.305594E+01 -2.881955E+04 -7.477176E-06 -1.515944E+02 -2.896614E+02  0.000000E+00  0.000000E+00  0.000000E+00  0.000000E+00  0.000000E+00  0.000000E+00  5.834353E+02  2.165554E-04 -1.477641E+04
     291  1.980246E+03  8.382391E+01 -2.877446E+04 -8.317807E-06 -1.512705E+02 -2.890217E+02  0.000000E+00  0.000000E+00  0.000000E+00  0.000000E+00  0.000000E+00  0.000000E+00  5.817743E+02  2.132891E-04 -1.473126E+04
     301  1.980446E+03  8.476825E+01 -2.872548E+04 -9.105479E-06 -1.508740E+02 -2.882834E+02  0.000000E+00  0.000000E+00  0.000000E+00  0.000000E+00  0.000000E+00  0.000000E+00  5.800476E+02  2.099332E-04 -1.468419E+04
     311  1.980535E+03  8.572934E+01 -2.867228E+04 -9.883316E-06 -1.504166E+02 -2.874559E+02  0.000000E+00  0.000000E+00  0.000000E+00  0.000000E+00  0.000000E+00  0.000000E+00  5.782839E+02  2.065117E-04 -1.463579E+04
     321  1.980549E+03  8.654037E+01 -2.861548E+04 -1.066941E-05 -1.499456E+02 -2.865839E+02  0.000000E+00  0.000000E+00  0.000000E+00  0.000000E+00  0.000000E+00  0.000000E+00  5.764642E+02  2.030375E-04 -1.458565E+04
     331  1.980591E+03  8.713936E+01 -2.855661E+04 -1.144645E-05 -1.494960E+02 -2.857008E+02  0.000000E+00  0.000000E+00  0.000000E+00  0.000000E+00  0.000000E+00  0.000000E+00  5.745671E+02  1.995069E-04 -1.453331E+04
     341  1.980744E+03  8.758204E+01 -2.849692E+04 -1.218123E-05 -1.490752E+02 -2.848102E+02  0.000000E+00  0.000000E+00  0.000000E+00  0.000000E+00  0.000000E+00  0.000000E+00  5.725859E+02  1.959125E-04 -1.447864E+04
     351  1.981005E+03  8.785854E+01 -2.843664E+04 -1.284442E-05 -1.487012E+02 -2.839324E+02  0.000000E+00  0.000000E+00  0.000000E+00  0.000000E+00  0.000000E+00  0.000000E+00  5.705175E+02  1.922554E-04 -1.442167E+04
     361  1.981319E+03  8.782970E+01 -2.837590E+04 -1.340715E-05 -1.484052E+02 -2.831154E+02  0.000000E+00  0.000000E+00  0.000000E+00  0.000000E+00  0.000000E+00  0.000000E+00  5.683795E+02  1.885608E-04 -1.436295E+04
     371  1.981657E+03  8.725428E+01 -2.831589E+04 -1.385312E-05 -1.482366E+02 -2.824440E+02  0.000000E+00  0.000000E+00  0.000000E+00  0.000000E+00  0.000000E+00  0.000000E+00  5.662336E+02  1.849059E-04 -1.430418E+04
     381  1.982051E+03  8.580569E+01 -2.825920E+04 -1.418167E-05 -1.482082E+02 -2.819866E+02  0.000000E+00  0.000000E+00  0.000000E+00  0.000000E+00  0.000000E+00  0.000000E+00  5.641890E+02  1.814391E-04 -1.424830E+04
     391  1.982530E+03  8.307657E+01 -2.820859E+04 -1.441093E-05 -1.482789E+02 -2.817538E+02  0.000000E+00  0.000000E+00  0.000000E+00  0.000000E+00  0.000000E+00  0.000000E+00  5.623867E+02  1.783586E-04 -1.419911E+04
     401  1.983058E+03  7.892130E+01 -2.816535E+04 -1.457143E-05 -1.483562E+02 -2.816654E+02  0.000000E+00  0.000000E+00  0.000000E+00  0.000000E+00  0.000000E+00  0.000000E+00  5.609972E+02  1.758579E-04 -1.416103E+04
     411  1.983614E+03  7.333578E+01 -2.813108E+04 -1.469838E-05 -1.483813E+02 -2.816621E+02  0.000000E+00  0.000000E+00  0.000000E+00  0.000000E+00  0.000000E+00  0.000000E+00  5.602329E+02  1.740654E-04 -1.413921E+04
     421  1.984341E+03  6.657527E+01 -2.810954E+04 -1.484179E-05 -1.483236E+02 -2.817050E+02  0.000000E+00  0.000000E+00  0.000000E+00  0.000000E+00  0.000000E+00  0.000000E+00  5.603333E+02  1.729951E-04 -1.413896E+04
     431  1.985552E+03  5.897486E+01 -2.810592E+04 -1.506550E-05 -1.481769E+02 -2.817738E+02  0.000000E+00  0.000000E+00  0.000000E+00  0.000000E+00  0.000000E+00  0.000000E+00  5.614404E+02  1.725290E-04 -1.416307E+04
     441  1.987524E+03  4.985602E+01 -2.812508E+04 -1.543921E-05 -1.479556E+02 -2.818608E+02  0.000000E+00  0.000000E+00  0.000000E+00  0.000000E+00  0.000000E+00  0.000000E+00  5.634414E+02  1.725206E-04 -1.420869E+04
     451  1.990223E+03  3.695065E+01 -2.816820E+04 -1.601948E-05 -1.476294E+02 -2.818806E+02  0.000000E+00  0.000000E+00  0.000000E+00  0.000000E+00  0.000000E+00  0.000000E+00  5.659412E+02  1.728967E-04 -1.426684E+04
     461  1.993316E+03  1.972554E+01 -2.822661E+04 -1.683399E-05 -1.472024E+02 -2.817729E+02  0.000000E+00  0.000000E+00  0.000000E+00  0.000000E+00  0.000000E+00  0.000000E+00  5.684426E+02  1.736440E-04 -1.432636E+04
     471  1.996553E+03  4.341007E+00 -2.828011E+04 -1.786273E-05 -1.467195E+02 -2.815310E+02  0.000000E+00  0.000000E+00  0.000000E+00  0.000000E+00  0.000000E+00  0.000000E+00  5.705998E+02  1.746854E-04 -1.437934E+04
     481  1.999863E+03 -4.669294E+00 -2.831894E+04 -1.904987E-05 -1.462113E+02 -2.811556E+02  0.000000E+00  0.000000E+00  0.000000E+00  0.000000E+00  0.000000E+00  0.000000E+00  5.722899E+02  1.758827E-04 -1.442276E+04
     491  2.003271E+03 -7.035254E+00 -2.834469E+04 -2.033349E-05 -1.456671E+02 -2.806048E+02  0.000000E+00  0.000000E+00  0.000000E+00  0.000000E+00  0.000000E+00  0.000000E+00  5.735472E+02  1.770986E-04 -1.445707E+04
     501  2.006863E+03 -4.929441E+00 -2.836527E+04 -2.165590E-05 -1.450800E+02 -2.798396E+02  0.000000E+00  0.000000E+00  0.000000E+00  0.000000E+00  0.000000E+00  0.000000E+00  5.744790E+02  1.782218E-04 -1.448443E+04
     511  2.011010E+03 -1.154127E+00 -2.839133E+04 -2.296776E-05 -1.444625E+02 -2.788555E+02  0.000000E+00  0.000000E+00  0.000000E+00  0.000000E+00  0.000000E+00  0.000000E+00  5.751975E+02  1.791765E-04 -1.450717E+04
     521  2.016332E+03  2.312690E+00 -2.843061E+04 -2.422763E-05 -1.438457E+02 -2.776877E+02  0.000000E+00  0.000000E+00  0.000000E+00  0.000000E+00  0.000000E+00  0.000000E+00  5.757599E+02  1.799308E-04 -1.452654E+04
     531  2.022658E+03  4.903159E+00 -2.848168E+04 -2.540146E-05 -1.432469E+02 -2.763738E+02  0.000000E+00  0.000000E+00  0.000000E+00  0.000000E+00  0.000000E+00  0.000000E+00  5.761716E+02  1.804923E-04 -1.454270E+04
     541  2.029226E+03  7.151109E+00 -2.853703E+04 -2.644612E-05 -1.426632E+02 -2.749229E+02  0.000000E+00  0.000000E+00  0.000000E+00  0.000000E+00  0.000000E+00  0.000000E+00  5.764078E+02  1.808682E-04 -1.455513E+04
     551  2.035236E+03  9.961873E+00 -2.858784E+04 -2.730593E-05 -1.421024E+02 -2.733563E+02  0.000000E+00  0.000000E+00  0.000000E+00  0.000000E+00  0.000000E+00  0.000000E+00  5.764284E+02  1.810221E-04 -1.456281E+04
     561  2.040364E+03  1.383953E+01 -2.862888E+04 -2.793257E-05 -1.415789E+02 -2.717219E+02  0.000000E+00  0.000000E+00  0.000000E+00  0.000000E+00  0.000000E+00  0.000000E+00  5.761550E+02  1.808649E-04 -1.456367E+04
     571  2.044693E+03  1.874189E+01 -2.865817E+04 -2.829381E-05 -1.411130E+02 -2.700852E+02  0.000000E+00  0.000000E+00  0.000000E+00  0.000000E+00  0.000000E+00  0.000000E+00  5.754660E+02  1.802704E-04 -1.455441E+04
     581  2.048333E+03  2.418352E+01 -2.867363E+04 -2.837965E-05 -1.407057E+02 -2.684840E+02  0.000000E+00  0.000000E+00  0.000000E+00  0.000000E+00  0.000000E+00  0.000000E+00  5.742328E+02  1.791018E-04 -1.453143E+04
     591  2.051355E+03  2.965739E+01 -2.867380E+04 -2.818905E-05 -1.403540E+02 -2.669337E+02  0.000000E+00  0.000000E+00  0.000000E+00  0.000000E+00  0.000000E+00  0.000000E+00  5.723854E+02  1.772541E-04 -1.449263E+04
     601  2.053711E+03  3.473548E+01 -2.865705E+04 -2.773708E-05 -1.400700E+02 -2.654678E+02  0.000000E+00  0.000000E+00  0.000000E+00  0.000000E+00  0.000000E+00  0.000000E+00  5.699455E+02  1.747050E-04 -1.443835E+04
     611  2.055214E+03  3.916633E+01 -2.862141E+04 -2.704454E-05 -1.398708E+02 -2.641409E+02  0.000000E+00  0.000000E+00  0.000000E+00  0.000000E+00  0.000000E+00  0.000000E+00  5.670296E+02  1.715217E-04 -1.437152E+04
     621  2.055662E+03  4.283028E+01 -2.856640E+04 -2.612744E-05 -1.397665E+02 -2.630055E+02  0.000000E+00  0.000000E+00  0.000000E+00  0.000000E+00  0.000000E+00  0.000000E+00  5.637981E+02  1.678172E-04 -1.429623E+04
     631  2.055116E+03  4.580458E+01 -2.849504E+04 -2.500486E-05 -1.397277E+02 -2.620580E+02  0.000000E+00  0.000000E+00  0.000000E+00  0.000000E+00  0.000000E+00  0.000000E+00  5.604017E+02  1.637036E-04 -1.421628E+04
     641  2.053903E+03  4.821431E+01 -2.841310E+04 -2.370669E-05 -1.397205E+02 -2.612801E+02  0.000000E+00  0.000000E+00  0.000000E+00  0.000000E+00  0.000000E+00  0.000000E+00  5.569473E+02  1.592613E-04 -1.413427E+04
     651  2.052455E+03  5.015033E+01 -2.832690E+04 -2.227071E-05 -1.397467E+02 -2.606984E+02  0.000000E+00  0.000000E+00  0.000000E+00  0.000000E+00  0.000000E+00  0.000000E+00  5.534982E+02  1.545462E-04 -1.405168E+04
     661  2.051181E+03  5.167987E+01 -2.824198E+04 -2.074085E-05 -1.398131E+02 -2.603481E+02  0.000000E+00  0.000000E+00  0.000000E+00  0.000000E+00  0.000000E+00  0.000000E+00  5.501057E+02  1.496158E-04 -1.396966E+04
     671  2.050388E+03  5.283422E+01 -2.816263E+04 -1.915868E-05 -1.399197E+02 -2.602472E+02  0.000000E+00  0.000000E+00  0.000000E+00  0.000000E+00  0.000000E+00  0.000000E+00  5.468259E+02  1.445435E-04 -1.388952E+04
     681  2.050316E+03  5.362000E+01 -2.809266E+04 -1.755748E-05 -1.400517E+02 -2.603771E+02  0.000000E+00  0.000000E+00  0.000000E+00  0.000000E+00  0.000000E+00  0.000000E+00  5.437415E+02  1.394060E-04 -1.381323E+04
     691  2.050990E+03  5.400924E+01 -2.803439E+04 -1.596672E-05 -1.402040E+02 -2.607204E+02  0.000000E+00  0.000000E+00  0.000000E+00  0.000000E+00  0.000000E+00  0.000000E+00  5.409725E+02  1.342745E-04 -1.374366E+04
     701  2.052059E+03  5.401689E+01 -2.798746E+04 -1.441474E-05 -1.403978E+02 -2.612895E+02  0.000000E+00  0.000000E+00  0.000000E+00  0.000000E+00  0.000000E+00  0.000000E+00  5.386904E+02  1.292204E-04 -1.368496E+04
     711  2.053122E+03  5.368430E+01 -2.795183E+04 -1.293392E-05 -1.406645E+02 -2.621124E+02  0.000000E+00  0.000000E+00  0.000000E+00  0.000000E+00  0.000000E+00  0.000000E+00  5.371165E+02  1.243231E-04 -1.364246E+04
     721  2.054139E+03  5.305161E+01 -2.793110E+04 -1.156191E-05 -1.410092E+02 -2.631763E+02  0.000000E+00  0.000000E+00  0.000000E+00  0.000000E+00  0.000000E+00  0.000000E+00  5.364815E+02  1.196745E-04 -1.362175E+04
     731  2.055437E+03  5.217568E+01 -2.793119E+04 -1.033781E-05 -1.414181E+02 -2.644308E+02  0.000000E+00  0.000000E+00  0.000000E+00  0.000000E+00  0.000000E+00  0.000000E+00  5.369310E+02  1.153766E-04 -1.362650E+04
     741  2.057254E+03  5.113521E+01 -2.795367E+04 -9.298519E-06 -1.418954E+02 -2.658407E+02  0.000000E+00  0.000000E+00  0.000000E+00  0.000000E+00  0.000000E+00  0.000000E+00  5.383669E+02  1.115258E-04 -1.365477E+04
     751  2.059634E+03  4.995584E+01 -2.799457E+04 -8.467845E-06 -1.424589E+02 -2.673876E+02  0.000000E+00  0.000000E+00  0.000000E+00  0.000000E+00  0.000000E+00  0.000000E+00  5.404361E+02  1.081895E-04 -1.369881E+04
     761  2.062466E+03  4.868545E+01 -2.804602E+04 -7.837640E-06 -1.430867E+02 -2.690004E+02  0.000000E+00  0.000000E+00  0.000000E+00  0.000000E+00  0.000000E+00  0.000000E+00  5.426387E+02  1.053595E-04 -1.374728E+04
     771  2.065594E+03  4.743694E+01 -2.810000E+04 -7.374762E-06 -1.437164E+02 -2.705542E+02  0.000000E+00  0.000000E+00  0.000000E+00  0.000000E+00  0.000000E+00  0.000000E+00  5.445386E+02  1.029352E-04 -1.378998E+04
     781  2.068971E+03  4.629536E+01 -2.815222E+04 -7.040837E-06 -1.443198E+02 -2.719768E+02  0.000000E+00  0.000000E+00  0.000000E+00  0.000000E+00  0.000000E+00  0.000000E+00  5.459128E+02  1.007527E-04 -1.382131E+04
     791  2.072630E+03  4.528884E+01 -2.820171E+04 -6.810981E-06 -1.449104E+02 -2.732728E+02  0.000000E+00  0.000000E+00  0.000000E+00  0.000000E+00  0.000000E+00  0.000000E+00  5.467052E+02  9.865324E-05 -1.383935E+04
     801  2.076656E+03  4.447004E+01 -2.824932E+04 -6.673906E-06 -1.454678E+02 -2.744219E+02  0.000000E+00  0.000000E+00  0.000000E+00  0.000000E+00  0.000000E+00  0.000000E+00  5.469738E+02  9.651537E-05 -1.384471E+04
     811  2.081004E+03  4.393768E+01 -2.829479E+04 -6.625913E-06 -1.459364E+02 -2.753598E+02  0.000000E+00  0.000000E+00  0.000000E+00  0.000000E+00  0.000000E+00  0.000000E+00  5.468079E+02  9.426800E-05 -1.383884E+04
     821  2.085488E+03  4.382031E+01 -2.833653E+04 -6.661121E-06 -1.462982E+02 -2.760679E+02  0.000000E+00  0.000000E+00  0.000000E+00  0.000000E+00  0.000000E+00  0.000000E+00  5.463031E+02  9.189727E-05 -1.382368E+04
     831  2.089883E+03  4.428719E+01 -2.837307E+04 -6.765990E-06 -1.465661E+02 -2.765691E+02  0.000000E+00  0.000000E+00  0.000000E+00  0.000000E+00  0.000000E+00  0.000000E+00  5.455525E+02  8.944871E-05 -1.380151E+04
     841  2.094096E+03  4.555933E+01 -2.840491E+04 -6.918188E-06 -1.467126E+02 -2.768351E+02  0.000000E+00  0.000000E+00  0.000000E+00  0.000000E+00  0.000000E+00  0.000000E+00  5.446472E+02  8.700679E-05 -1.377492E+04
     851  2.098112E+03  4.786927E+01 -2.843339E+04 -7.089378E-06 -1.466831E+02 -2.767988E+02  0.000000E+00  0.000000E+00  0.000000E+00  0.000000E+00  0.000000E+00  0.000000E+00  5.436589E+02  8.467755E-05 -1.374619E+04
     861  2.101924E+03  5.148681E+01 -2.845926E+04 -7.247767E-06 -1.464722E+02 -2.764547E+02  0.000000E+00  0.000000E+00  0.000000E+00  0.000000E+00  0.000000E+00  0.000000E+00  5.426366E+02  8.255846E-05 -1.371698E+04
     871  2.105523E+03  5.678679E+01 -2.848216E+04 -7.374177E-06 -1.461124E+02 -2.758476E+02  0.000000E+00  0.000000E+00  0.000000E+00  0.000000E+00  0.000000E+00  0.000000E+00  5.416061E+02  8.071194E-05 -1.368819E+04
     881  2.108878E+03  6.448360E+01 -2.849973E+04 -7.462228E-06 -1.456269E+02 -2.750066E+02  0.000000E+00  0.000000E+00  0.000000E+00  0.000000E+00  0.000000E+00  0.000000E+00  5.405701E+02  7.916032E-05 -1.365998E+04
     891  2.111941E+03  7.529541E+01 -2.850890E+04 -7.505364E-06 -1.450577E+02 -2.739861E+02  0.000000E+00  0.000000E+00  0.000000E+00  0.000000E+00  0.000000E+00  0.000000E+00  5.395131E+02  7.789332E-05 -1.363195E+04
     901  2.114671E+03  8.849253E+01 -2.850975E+04 -7.491595E-06 -1.444956E+02 -2.729079E+02  0.000000E+00  0.000000E+00  0.000000E+00  0.000000E+00  0.000000E+00  0.000000E+00  5.384075E+02  7.686747E-05 -1.360336E+04
     911  2.117006E+03  1.026417E+02 -2.850338E+04 -7.390732E-06 -1.440272E+02 -2.718830E+02  0.000000E+00  0.000000E+00  0.000000E+00  0.000000E+00  0.000000E+00  0.000000E+00  5.372054E+02  7.602387E-05 -1.357298E+04
     921  2.118774E+03  1.187484E+02 -2.848326E+04 -7.154109E-06 -1.437002E+02 -2.709655E+02  0.000000E+00  0.000000E+00  0.000000E+00  0.000000E+00  0.000000E+00  0.000000E+00  5.358788E+02  7.528842E-05 -1.354004E+04
     931  2.119774E+03  1.392446E+02 -2.843825E+04 -6.721192E-06 -1.435711E+02 -2.702307E+02  0.000000E+00  0.000000E+00  0.000000E+00  0.000000E+00  0.000000E+00  0.000000E+00  5.344225E+02  7.458442E-05 -1.350424E+04
     941  2.119941E+03  1.605733E+02 -2.837133E+04 -6.059673E-06 -1.436748E+02 -2.697657E+02  0.000000E+00  0.000000E+00  0.000000E+00  0.000000E+00  0.000000E+00  0.000000E+00  5.328452E+02  7.385003E-05 -1.346565E+04
     951  2.119443E+03  1.748463E+02 -2.830093E+04 -5.195104E-06 -1.439740E+02 -2.695857E+02  0.000000E+00  0.000000E+00  0.000000E+00  0.000000E+00  0.000000E+00  0.000000E+00  5.311653E+02  7.303318E-05 -1.342456E+04
     961  2.118646E+03  1.800780E+02 -2.823737E+04 -4.198564E-06 -1.443849E+02 -2.696493E+02  0.000000E+00  0.000000E+00  0.000000E+00  0.000000E+00  0.000000E+00  0.000000E+00  5.294109E+02  7.208666E-05 -1.338154E+04
     971  2.117847E+03  1.790143E+02 -2.818132E+04 -3.141006E-06 -1.448530E+02 -2.699474E+02  0.000000E+00  0.000000E+00  0.000000E+00  0.000000E+00  0.000000E+00  0.000000E+00  5.276351E+02  7.098388E-05 -1.333782E+04
     981  2.117100E+03  1.749949E+02 -2.812966E+04 -2.055281E-06 -1.453600E+02 -2.704900E+02  0.000000E+00  0.000000E+00  0.000000E+00  0.000000E+00  0.000000E+00  0.000000E+00  5.259273E+02  6.971945E-05 -1.329553E+04
     991  2.116217E+03  1.698203E+02 -2.808002E+04 -9.495804E-07 -1.458712E+02 -2.712392E+02  0.000000E+00  0.000000E+00  0.000000E+00  0.000000E+00  0.000000E+00  0.000000E+00  5.244117E+02  6.831268E-05 -1.325769E+04
    1001  2.115047E+03  1.644769E+02 -2.803189E+04  1.507138E-07 -1.463502E+02 -2.721518E+02  0.000000E+00  0.000000E+00  0.000000E+00  0.000000E+00  0.000000E+00  0.000000E+00  5.232575E+02  6.681607E-05 -1.322842E+04
    1011  2.113734E+03  1.593229E+02 -2.798957E+04  1.197553E-06 -1.467905E+02 -2.732287E+02  0.000000E+00  0.000000E+00  0.000000E+00  0.000000E+00  0.000000E+00  0.000000E+00  5.226776E+02  6.531360E-05 -1.321291E+04
    1021  2.112678E+03  1.543910E+02 -2.796095E+04  2.137366E-06 -1.471900E+02 -2.744658E+02  0.000000E+00  0.000000E+00  0.000000E+00  0.000000E+00  0.000000E+00  0.000000E+00  5.228948E+02  6.390842E-05 -1.321653E+04
    1031  2.112361E+03  1.493551E+02 -2.795469E+04  2.906817E-06 -1.475324E+02 -2.758253E+02  0.000000E+00  0.000000E+00  0.000000E+00  0.000000E+00  0.000000E+00  0.000000E+00  5.241030E+02  6.272454E-05 -1.324382E+04
    1041  2.113200E+03  1.439308E+02 -2.797736E+04  3.432951E-06 -1.478391E+02 -2.772915E+02  0.000000E+00  0.000000E+00  0.000000E+00  0.000000E+00  0.000000E+00  0.000000E+00  5.264122E+02  6.192618E-05 -1.329715E+04
    1051  2.115468E+03  1.379890E+02 -2.803127E+04  3.653264E-06 -1.481530E+02 -2.788709E+02  0.000000E+00  0.000000E+00  0.000000E+00  0.000000E+00  0.000000E+00  0.000000E+00  5.297855E+02  6.169079E-05 -1.337532E+04
    1061  2.119167E+03  1.317362E+02 -2.811208E+04  3.531927E-06 -1.484998E+02 -2.805422E+02  0.000000E+00  0.000000E+00  0.000000E+00  0.000000E+00  0.000000E+00  0.000000E+00  5.339251E+02  6.213156E-05 -1.347122E+04
    1071  2.124054E+03  1.255384E+02 -2.821007E+04  3.083126E-06 -1.488821E+02 -2.822511E+02  0.000000E+00  0.000000E+00  0.000000E+00  0.000000E+00  0.000000E+00  0.000000E+00  5.383079E+02  6.324356E-05 -1.357282E+04
    1081  2.129847E+03  1.196455E+02 -2.831603E+04  2.351718E-06 -1.492865E+02 -2.839273E+02  0.000000E+00  0.000000E+00  0.000000E+00  0.000000E+00  0.000000E+00  0.000000E+00  5.424306E+02  6.492494E-05 -1.366868E+04
    1091  2.136356E+03  1.142377E+02 -2.842499E+04  1.386585E-06 -1.496944E+02 -2.854984E+02  0.000000E+00  0.000000E+00  0.000000E+00  0.000000E+00  0.000000E+00  0.000000E+00  5.460063E+02  6.704958E-05 -1.375227E+04
    1101  2.143549E+03  1.093679E+02 -2.853702E+04  2.321949E-07 -1.500858E+02 -2.868855E+02  0.000000E+00  0.000000E+00  0.000000E+00  0.000000E+00  0.000000E+00  0.000000E+00  5.489745E+02  6.950928E-05 -1.382230E+04
    1111  2.151472E+03  1.050957E+02 -2.865460E+04 -1.069586E-06 -1.504235E+02 -2.879930E+02  0.000000E+00  0.000000E+00  0.000000E+00  0.000000E+00  0.000000E+00  0.000000E+00  5.514190E+02  7.221033E-05 -1.388083E+04
    1121  2.160028E+03  1.014696E+02 -2.877777E+04 -2.474057E-06 -1.506669E+02 -2.887255E+02  0.000000E+00  0.000000E+00  0.000000E+00  0.000000E+00  0.000000E+00  0.000000E+00  5.534368E+02  7.505509E-05 -1.393024E+04
    1131  2.168913E+03  9.855071E+01 -2.890238E+04 -3.925422E-06 -1.507920E+02 -2.890278E+02  0.000000E+00  0.000000E+00  0.000000E+00  0.000000E+00  0.000000E+00  0.000000E+00  5.550886E+02  7.793268E-05 -1.397200E+04
    1141  2.177593E+03  9.640549E+01 -2.902027E+04 -5.357635E-06 -1.507908E+02 -2.888896E+02  0.000000E+00  0.000000E+00  0.000000E+00  0.000000E+00  0.000000E+00  0.000000E+00  5.563682E+02  8.072728E-05 -1.400588E+04
    1151  2.185565E+03  9.504430E+01 -2.912376E+04 -6.707422E-06 -1.506494E+02 -2.883194E+02  0.000000E+00  0.000000E+00  0.000000E+00  0.000000E+00  0.000000E+00  0.000000E+00  5.572225E+02  8.333554E-05 -1.403039E+04
    1161  2.192467E+03  9.450108E+01 -2.920714E+04 -7.925429E-06 -1.503458E+02 -2.873347E+02  0.000000E+00  0.000000E+00  0.000000E+00  0.000000E+00  0.000000E+00  0.000000E+00  5.576013E+02  8.566991E-05 -1.404397E+04
    1171  2.198184E+03  9.474136E+01 -2.926818E+04 -8.975008E-06 -1.498881E+02 -2.860025E+02  0.000000E+00  0.000000E+00  0.000000E+00  0.000000E+00  0.000000E+00  0.000000E+00  5.574954E+02  8.765393E-05 -1.404598E+04
    1181  2.202784E+03  9.577770E+01 -2.930716E+04 -9.834839E-06 -1.492967E+02 -2.844069E+02  0.000000E+00  0.000000E+00  0.000000E+00  0.000000E+00  0.000000E+00  0.000000E+00  5.569538E+02  8.923198E-05 -1.403720E+04
    1191  2.206405E+03  9.756872E+01 -2.932601E+04 -1.050786E-05 -1.485874E+02 -2.826265E+02  0.000000E+00  0.000000E+00  0.000000E+00  0.000000E+00  0.000000E+00  0.000000E+00  5.560587E+02  9.037757E-05 -1.401939E+04
    1201  2.209215E+03  9.992302E+01 -2.932744E+04 -1.101099E-05 -1.478082E+02 -2.807544E+02  0.000000E+00  0.000000E+00  0.000000E+00  0.000000E+00  0.000000E+00  0.000000E+00  5.548910E+02  9.108977E-05 -1.399442E+04
    1211  2.211303E+03  1.025812E+02 -2.931331E+04 -1.135266E-05 -1.470156E+02 -2.788734E+02  0.000000E+00  0.000000E+00  0.000000E+00  0.000000E+00  0.000000E+00  0.000000E+00  5.535071E+02  9.139354E-05 -1.396370E+04
    1221  2.212706E+03  1.052816E+02 -2.928494E+04 -1.154612E-05 -1.462333E+02 -2.770340E+02  0.000000E+00  0.000000E+00  0.000000E+00  0.000000E+00  0.000000E+00  0.000000E+00  5.519439E+02  9.133714E-05 -1.392828E+04
    1231  2.213463E+03  1.077511E+02 -2.924392E+04 -1.160481E-05 -1.454967E+02 -2.752881E+02  0.000000E+00  0.000000E+00  0.000000E+00  0.000000E+00  0.000000E+00  0.000000E+00  5.502313E+02  9.097892E-05 -1.388909E+04
    1241  2.213681E+03  1.097879E+02 -2.919291E+04 -1.152824E-05 -1.448516E+02 -2.736886E+02  0.000000E+00  0.000000E+00  0.000000E+00  0.000000E+00  0.000000E+00  0.000000E+00  5.484014E+02  9.037824E-05 -1.384712E+04
    1251  2.213481E+03  1.112728E+02 -2.913498E+04 -1.131711E-05 -1.443159E+02 -2.722667E+02  0.000000E+00  0.000000E+00  0.000000E+00  0.000000E+00  0.000000E+00  0.000000E+00  5.465005E+02  8.958874E-05 -1.380368E+04
    1261  2.212984E+03  1.121621E+02 -2.907328E+04 -1.097268E-05 -1.439021E+02 -2.710432E+02  0.000000E+00  0.000000E+00  0.000000E+00  0.000000E+00  0.000000E+00  0.000000E+00  5.445961E+02  8.865152E-05 -1.376052E+04
    1271  2.212275E+03  1.124619E+02 -2.901074E+04 -1.049338E-05 -1.436133E+02 -2.700285E+02  0.000000E+00  0.000000E+00  0.000000E+00  0.000000E+00  0.000000E+00  0.000000E+00  5.427672E+02  8.760012E-05 -1.371967E+04
    1281  2.211394E+03  1.122377E+02 -2.894989E+04 -9.884112E-06 -1.434296E+02 -2.692159E+02  0.000000E+00  0.000000E+00  0.000000E+00  0.000000E+00  0.000000E+00  0.000000E+00  5.410955E+02  8.645997E-05 -1.368314E+04
    1291  2.210441E+03  1.115486E+02 -2.889367E+04 -9.154822E-06 -1.433324E+02 -2.686004E+02  0.000000E+00  0.000000E+00  0.000000E+00  0.000000E+00  0.000000E+00  0.000000E+00  5.396609E+02  8.524276E-05 -1.365291E+04
    1301  2.209484E+03  1.103906E+02 -2.884451E+04 -8.321860E-06 -1.433011E+02 -2.681771E+02  0.000000E+00  0.000000E+00  0.000000E+00  0.000000E+00  0.000000E+00  0.000000E+00  5.385418E+02  8.395455E-05 -1.363084E+04
    1311  2.208656E+03  1.086560E+02 -2.880527E+04 -7.410661E-06 -1.433038E+02 -2.679255E+02  0.000000E+00  0.000000E+00  0.000000E+00  0.000000E+00  0.000000E+00  0.000000E+00  5.378134E+02  8.259246E-05 -1.361863E+04
    1321  2.208060E+03  1.061855E+02 -2.877822E+04 -6.453168E-06 -1.433113E+02 -2.678191E+02  0.000000E+00  0.000000E+00  0.000000E+00  0.000000E+00  0.000000E+00  0.000000E+00  5.375350E+02  8.113311E-05 -1.361747E+04
    1331  2.207895E+03  1.029850E+02 -2.876633E+04 -5.489993E-06 -1.433029E+02 -2.678389E+02  0.000000E+00  0.000000E+00  0.000000E+00  0.000000E+00  0.000000E+00  0.000000E+00  5.377623E+02  7.955910E-05 -1.362828E+04
    1341  2.208339E+03  9.945126E+01 -2.877086E+04 -4.567015E-06 -1.432687E+02 -2.679696E+02  0.000000E+00  0.000000E+00  0.000000E+00  0.000000E+00  0.000000E+00  0.000000E+00  5.385394E+02  7.785537E-05 -1.365157E+04
    1351  2.209543E+03  9.636616E+01 -2.879131E+04 -3.730399E-06 -1.432132E+02 -2.681966E+02  0.000000E+00  0.000000E+00  0.000000E+00  0.000000E+00  0.000000E+00  0.000000E+00  5.398710E+02  7.600544E-05 -1.368687E+04