 variables=iter,cl,cd,cm,clim,cdim,cmim,clip,cdip,cmip,cljm,cdjm,cmjm,cljp,cdjp,cmjp
 zone t="coefhist",f=point
       1  1.983325E+03  2.668543E+01 -2.970020E+04  0.000000E+00  0.000000E+00  0.000000E+00  0.000000E+00  0.000000E+00  0.000000E+00  0.000000E+00  0.000000E+00  0.000000E+00  3.305501E+01  1.411764E-05 -3.388139E+02
      11  1.983302E+03  1.399092E+02 -2.948189E+04  0.000000E+00  0.000000E+00  0.000000E+00  0.000000E+00  0.000000E+00  0.000000E+00  0.000000E+00  0.000000E+00  0.000000E+00  3.304394E+01  1.486991E-05 -3.386455E+02
      21  1.982926E+03  1.414190E+02 -2.946124E+04  0.000000E+00  0.000000E+00  0.000000E+00  0.000000E+00  0.000000E+00  0.000000E+00  0.000000E+00  0.000000E+00  0.000000E+00  3.282253E+01  1.613286E-05 -3.363396E+02
      31  1.982378E+03  1.371036E+02 -2.944738E+04  0.000000E+00  0.000000E+00  0.000000E+00  0.000000E+00  0.000000E+00  0.000000E+00  0.000000E+00  0.000000E+00  0.000000E+00  3.250329E+01  1.712727E-05 -3.330873E+02
      41  1.981815E+03  1.330367E+02 -2.942999E+04  0.000000E+00  0.000000E+00  0.000000E+00  0.000000E+00  0.000000E+00  0.000000E+00  0.000000E+00  0.000000E+00  0.000000E+00  3.228185E+01  1.775567E-05 -3.308167E+02
      51  1.981492E+03  1.288362E+02 -2.941378E+04  0.000000E+00  0.000000E+00  0.000000E+00  0.000000E+00  0.000000E+00  0.000000E+00  0.000000E+00  0.000000E+00  0.000000E+00  3.231717E+01  1.851093E-05 -3.311567E+02
      61  1.980868E+03  1.250458E+02 -2.939307E+04  0.000000E+00  0.000000E+00  0.000000E+00  0.000000E+00  0.000000E+00  0.000000E+00  0.000000E+00  0.000000E+00  0.000000E+00  3.195247E+01  1.911821E-05 -3.274324E+02
      71  1.980201E+03  1.213586E+02 -2.937247E+04  0.000000E+00  0.000000E+00  0.000000E+00  0.000000E+00  0.000000E+00  0.000000E+00  0.000000E+00  0.000000E+00  0.000000E+00  3.130868E+01  1.932569E-05 -3.208601E+02
      81  1.979825E+03  1.180612E+02 -2.935405E+04  0.000000E+00  0.000000E+00  0.000000E+00  0.000000E+00  0.000000E+00  0.000000E+00  0.000000E+00  0.000000E+00  0.000000E+00  3.080126E+01  1.929294E-05 -3.156748E+02
      91  1.979248E+03  1.149275E+02 -2.932761E+04  0.000000E+00  0.000000E+00  0.000000E+00  0.000000E+00  0.000000E+00  0.000000E+00  0.000000E+00  0.000000E+00  0.000000E+00  3.048047E+01  1.910946E-05 -3.123956E+02
     101  1.978375E+03  1.119677E+02 -2.929314E+04  0.000000E+00  0.000000E+00  0.000000E+00  0.000000E+00  0.000000E+00  0.000000E+00  0.000000E+00  0.000000E+00  0.000000E+00  3.015525E+01  1.881141E-05 -3.090698E+02
     111  1.977658E+03  1.091524E+02 -2.926177E+04  0.000000E+00  0.000000E+00  0.000000E+00  0.000000E+00  0.000000E+00  0.000000E+00  0.000000E+00  0.000000E+00  0.000000E+00  2.966094E+01  1.846991E-05 -3.040069E+02
     121  1.977640E+03  1.065039E+02 -2.924334E+04  0.000000E+00  0.000000E+00  0.000000E+00  0.000000E+00  0.000000E+00  0.000000E+00  0.000000E+00  0.000000E+00  0.000000E+00  2.912969E+01  1.814101E-05 -2.985681E+02
     131  1.978420E+03  1.039806E+02 -2.923828E+04  0.000000E+00  0.000000E+00  0.000000E+00  0.000000E+00  0.000000E+00  0.000000E+00  0.000000E+00  0.000000E+00  0.000000E+00  2.868562E+01  1.779759E-05 -2.940274E+02
     141  1.979442E+03  1.015401E+02 -2.923672E+04  0.000000E+00  0.000000E+00  0.000000E+00  0.000000E+00  0.000000E+00  0.000000E+00  0.000000E+00  0.000000E+00  0.000000E+00  2.829125E+01  1.742481E-05 -2.899953E+02
     151  1.980086E+03  9.916832E+01 -2.923091E+04  0.000000E+00  0.000000E+00  0.000000E+00  0.000000E+00  0.000000E+00  0.000000E+00  0.000000E+00  0.000000E+00  0.000000E+00  2.787874E+01  1.705852E-05 -2.857734E+02
     161  1.979976E+03  9.691221E+01 -2.921517E+04  0.000000E+00  0.000000E+00  0.000000E+00  0.000000E+00  0.000000E+00  0.000000E+00  0.000000E+00  0.000000E+00  0.000000E+00  2.742621E+01  1.672247E-05 -2.811400E+02
     171  1.979066E+03  9.478045E+01 -2.918490E+04  0.000000E+00  0.000000E+00  0.000000E+00  0.000000E+00  0.000000E+00  0.000000E+00  0.000000E+00  0.000000E+00  0.000000E+00  2.696532E+01  1.641957E-05 -2.764230E+02
     181  1.977894E+03  9.276843E+01 -2.914415E+04  0.000000E+00  0.000000E+00  0.000000E+00  0.000000E+00  0.000000E+00  0.000000E+00  0.000000E+00  0.000000E+00  0.000000E+00  2.655608E+01  1.613444E-05 -2.722398E+02
     191  1.977231E+03  9.084883E+01 -2.910512E+04  0.000000E+00  0.000000E+00  0.000000E+00  0.000000E+00  0.000000E+00  0.000000E+00  0.000000E+00  0.000000E+00  0.000000E+00  2.620891E+01  1.582987E-05 -2.686944E+02
     201  1.977356E+03  8.903162E+01 -2.907709E+04  0.000000E+00  0.000000E+00  0.000000E+00  0.000000E+00  0.000000E+00  0.000000E+00  0.000000E+00  0.000000E+00  0.000000E+00  2.588755E+01  1.548606E-05 -2.654112E+02
     211  1.977985E+03  8.733232E+01 -2.905839E+04  0.000000E+00  0.000000E+00  0.000000E+00  0.000000E+00  0.000000E+00  0.000000E+00  0.000000E+00  0.000000E+00  0.000000E+00  2.557200E+01  1.511705E-05 -2.621850E+02
     221  1.978599E+03  8.575812E+01 -2.903895E+04  0.000000E+00  0.000000E+00  0.000000E+00  0.000000E+00  0.000000E+00  0.000000E+00  0.000000E+00  0.000000E+00  0.000000E+00  2.527160E+01  1.472865E-05 -2.591143E+02
     231  1.978866E+03  8.436686E+01 -2.901083E+04  0.000000E+00  0.000000E+00  0.000000E+00  0.000000E+00  0.000000E+00  0.000000E+00  0.000000E+00  0.000000E+00  0.000000E+00  2.501210E+01  1.427627E-05 -2.564664E+02
     241  1.978894E+03  8.326886E+01 -2.897516E+04  0.000000E+00  0.000000E+00  0.000000E+00  0.000000E+00  0.000000E+00  0.000000E+00  0.000000E+00  0.000000E+00  0.000000E+00  2.480479E+01  1.371198E-05 -2.543553E+02
     251  1.978972E+03  8.258276E+01 -2.893706E+04  0.000000E+00  0.000000E+00  0.000000E+00  0.000000E+00  0.000000E+00  0.000000E+00  0.000000E+00  0.000000E+00  0.000000E+00  2.465268E+01  1.300514E-05 -2.528097E+02
     261  1.979229E+03  8.235698E+01 -2.889923E+04  0.000000E+00  0.000000E+00  0.000000E+00  0.000000E+00  0.000000E+00  0.000000E+00  0.000000E+00  0.000000E+00  0.000000E+00  2.455397E+01  1.211570E-05 -2.518114E+02
     271  1.979606E+03  8.255072E+01 -2.886088E+04  0.000000E+00  0.000000E+00  0.000000E+00  0.000000E+00  0.000000E+00  0.000000E+00  0.000000E+00  0.000000E+00  0.000000E+00  2.451713E+01  1.098709E-05 -2.514484E+02
     281  1.979960E+03  8.305594E+01 -2.881955E+04  0.000000E+00  0.000000E+00  0.000000E+00  0.000000E+00  0.000000E+00  0.000000E+00  0.000000E+00  0.000000E+00  0.000000E+00  2.455177E+01  9.548728E-06 -2.518211E+02
     291  1.980246E+03  8.382391E+01 -2.877446E+04  0.000000E+00  0.000000E+00  0.000000E+00  0.000000E+00  0.000000E+00  0.000000E+00  0.000000E+00  0.000000E+00  0.000000E+00  2.464225E+01  7.780763E-06 -2.527637E+02
     301  1.980446E+03  8.476825E+01 -2.872548E+04  0.000000E+00  0.000000E+00  0.000000E+00  0.000000E+00  0.000000E+00  0.000000E+00  0.000000E+00  0.000000E+00  0.000000E+00  2.476234E+01  5.789367E-06 -2.540008E+02
     311  1.980535E+03  8.572934E+01 -2.867228E+04  0.000000E+00  0.000000E+00  0.000000E+00  0.000000E+00  0.000000E+00  0.000000E+00  0.000000E+00  0.000000E+00  0.000000E+00  2.490336E+01  3.743410E-06 -2.554416E+02
     321  1.980549E+03  8.654037E+01 -2.861548E+04  0.000000E+00  0.000000E+00  0.000000E+00  0.000000E+00  0.000000E+00  0.000000E+00  0.000000E+00  0.000000E+00  0.000000E+00  2.508251E+01  1.799909E-06 -2.572663E+02
     331  1.980591E+03  8.713936E+01 -2.855661E+04  0.000000E+00  0.000000E+00  0.000000E+00  0.000000E+00  0.000000E+00  0.000000E+00  0.000000E+00  0.000000E+00  0.000000E+00  2.533673E+01  4.419269E-08 -2.598588E+02
     341  1.980744E+03  8.758204E+01 -2.849692E+04  0.000000E+00  0.000000E+00  0.000000E+00  0.000000E+00  0.000000E+00  0.000000E+00  0.000000E+00  0.000000E+00  0.000000E+00  2.568810E+01 -1.508099E-06 -2.634466E+02
     351  1.981005E+03  8.785854E+01 -2.843664E+04  0.000000E+00  0.000000E+00  0.000000E+00  0.000000E+00  0.000000E+00  0.000000E+00  0.000000E+00  0.000000E+00  0.000000E+00  2.610966E+01 -2.813305E-06 -2.677493E+02
     361  1.981319E+03  8.782970E+01 -2.837590E+04  0.000000E+00  0.000000E+00  0.000000E+00  0.000000E+00  0.000000E+00  0.000000E+00  0.000000E+00  0.000000E+00  0.000000E+00  2.653678E+01 -3.781389E-06 -2.721014E+02
     371  1.981657E+03  8.725428E+01 -2.831589E+04  0.000000E+00  0.000000E+00  0.000000E+00  0.000000E+00  0.000000E+00  0.000000E+00  0.000000E+00  0.000000E+00  0.000000E+00  2.690921E+01 -4.327037E-06 -2.758886E+02
     381  1.982051E+03  8.580569E+01 -2.825920E+04  0.000000E+00  0.000000E+00  0.000000E+00  0.000000E+00  0.000000E+00  0.000000E+00  0.000000E+00  0.000000E+00  0.000000E+00  2.721852E+01 -4.430448E-06 -2.790316E+02
     391  1.982530E+03  8.307657E+01 -2.820859E+04  0.000000E+00  0.000000E+00  0.000000E+00  0.000000E+00  0.000000E+00  0.000000E+00  0.000000E+00  0.000000E+00  0.000000E+00  2.749007E+01 -4.172043E-06 -2.817962E+02
     401  1.983058E+03  7.892130E+01 -2.816535E+04  0.000000E+00  0.000000E+00  0.000000E+00  0.000000E+00  0.000000E+00  0.000000E+00  0.000000E+00  0.000000E+00  0.000000E+00  2.774782E+01 -3.644180E-06 -2.844258E+02
     411  1.983614E+03  7.333578E+01 -2.813108E+04  0.000000E+00  0.000000E+00  0.000000E+00  0.000000E+00  0.000000E+00  0.000000E+00  0.000000E+00  0.000000E+00  0.000000E+00  2.799102E+01 -2.905295E-06 -2.869105E+02
     421  1.984341E+03  6.657527E+01 -2.810954E+04  0.000000E+00  0.000000E+00  0.000000E+00  0.000000E+00  0.000000E+00  0.000000E+00  0.000000E+00  0.000000E+00  0.000000E+00  2.819298E+01 -2.012413E-06 -2.889773E+02
     431  1.985552E+03  5.897486E+01 -2.810592E+04  0.000000E+00  0.000000E+00  0.000000E+00  0.000000E+00  0.000000E+00  0.000000E+00  0.000000E+00  0.000000E+00  0.000000E+00  2.834481E+01 -1.046336E-06 -2.905364E+02
     441  1.987524E+03  4.985602E+01 -2.812508E+04  0.000000E+00  0.000000E+00  0.000000E+00  0.000000E+00  0.000000E+00  0.000000E+00  0.000000E+00  0.000000E+00  0.000000E+00  2.847280E+01 -1.006997E-07 -2.918583E+02
     451  1.990223E+03  3.695065E+01 -2.816820E+04  0.000000E+00  0.000000E+00  0.000000E+00  0.000000E+00  0.000000E+00  0.000000E+00  0.000000E+00  0.000000E+00  0.000000E+00  2.863106E+01  7.089236E-07 -2.934967E+02
     461  1.993316E+03  1.972554E+01 -2.822661E+04  0.000000E+00  0.000000E+00  0.000000E+00  0.000000E+00  0.000000E+00  0.000000E+00  0.000000E+00  0.000000E+00  0.000000E+00  2.888522E+01  1.157419E-06 -2.961282E+02
     471  1.996553E+03  4.341007E+00 -2.828011E+04  0.000000E+00  0.000000E+00  0.000000E+00  0.000000E+00  0.000000E+00  0.000000E+00  0.000000E+00  0.000000E+00  0.000000E+00  2.935896E+01  8.445036E-07 -3.010316E+02
     481  1.999863E+03 -4.669294E+00 -2.831894E+04  0.000000E+00  0.000000E+00  0.000000E+00  0.000000E+00  0.000000E+00  0.000000E+00  0.000000E+00  0.000000E+00  0.000000E+00  3.016897E+01 -5.753980E-07 -3.093981E+02
     491  2.003271E+03 -7.035254E+00 -2.834469E+04  0.000000E+00  0.000000E+00  0.000000E+00  0.000000E+00  0.000000E+00  0.000000E+00  0.000000E+00  0.000000E+00  0.000000E+00  3.126098E+01 -2.917405E-06 -3.206323E+02
     501  2.006863E+03 -4.929441E+00 -2.836527E+04  0.000000E+00  0.000000E+00  0.000000E+00  0.000000E+00  0.000000E+00  0.000000E+00  0.000000E+00  0.000000E+00  0.000000E+00  3.242555E+01 -5.512817E-06 -3.325570E+02
     511  2.011010E+03 -1.154127E+00 -2.839133E+04  0.000000E+00  0.000000E+00  0.000000E+00  0.000000E+00  0.000000E+00  0.000000E+00  0.000000E+00  0.000000E+00  0.000000E+00  3.370255E+01 -7.909423E-06 -3.456201E+02
     521  2.016332E+03  2.312690E+00 -2.843061E+04  0.000000E+00  0.000000E+00  0.000000E+00  0.000000E+00  0.000000E+00  0.000000E+00  0.000000E+00  0.000000E+00  0.000000E+00  3.522731E+01 -1.019092E-05 -3.612367E+02
     531  2.022658E+03  4.903159E+00 -2.848168E+04  0.000000E+00  0.000000E+00  0.000000E+00  0.000000E+00  0.000000E+00  0.000000E+00  0.000000E+00  0.000000E+00  0.000000E+00  3.680690E+01 -1.208097E-05 -3.773827E+02
     541  2.029226E+03  7.151109E+00 -2.853703E+04  0.000000E+00  0.000000E+00  0.000000E+00  0.000000E+00  0.000000E+00  0.000000E+00  0.000000E+00  0.000000E+00  0.000000E+00  3.808316E+01 -1.288906E-05 -3.903603E+02
     551  2.035236E+03  9.961873E+00 -2.858784E+04  0.000000E+00  0.000000E+00  0.000000E+00  0.000000E+00  0.000000E+00  0.000000E+00  0.000000E+00  0.000000E+00  0.000000E+00  3.856538E+01 -1.214464E-05 -3.951903E+02
     561  2.040364E+03  1.383953E+01 -2.862888E+04  0.000000E+00  0.000000E+00  0.000000E+00  0.000000E+00  0.000000E+00  0.000000E+00  0.000000E+00  0.000000E+00  0.000000E+00  3.826539E+01 -1.017649E-05 -3.920610E+02
     571  2.044693E+03  1.874189E+01 -2.865817E+04  0.000000E+00  0.000000E+00  0.000000E+00  0.000000E+00  0.000000E+00  0.000000E+00  0.000000E+00  0.000000E+00  0.000000E+00  3.757019E+01 -7.761224E-06 -3.849311E+02
     581  2.048333E+03  2.418352E+01 -2.867363E+04  0.000000E+00  0.000000E+00  0.000000E+00  0.000000E+00  0.000000E+00  0.000000E+00  0.000000E+00  0.000000E+00  0.000000E+00  3.677896E+01 -5.513396E-06 -3.768449E+02
     591  2.051355E+03  2.965739E+01 -2.867380E+04  0.000000E+00  0.000000E+00  0.000000E+00  0.000000E+00  0.000000E+00  0.000000E+00  0.000000E+00  0.000000E+00  0.000000E+00  3.603585E+01 -3.618359E-06 -3.692617E+02
     601  2.053711E+03  3.473548E+01 -2.865705E+04  0.000000E+00  0.000000E+00  0.000000E+00  0.000000E+00  0.000000E+00  0.000000E+00  0.000000E+00  0.000000E+00  0.000000E+00  3.546875E+01 -2.217062E-06 -3.634836E+02
     611  2.055214E+03  3.916633E+01 -2.862141E+04  0.000000E+00  0.000000E+00  0.000000E+00  0.000000E+00  0.000000E+00  0.000000E+00  0.000000E+00  0.000000E+00  0.000000E+00  3.523537E+01 -1.247058E-06 -3.611192E+02
     621  2.055662E+03  4.283028E+01 -2.856640E+04  0.000000E+00  0.000000E+00  0.000000E+00  0.000000E+00  0.000000E+00  0.000000E+00  0.000000E+00  0.000000E+00  0.000000E+00  3.533186E+01 -6.573200E-07 -3.621339E+02
     631  2.055116E+03  4.580458E+01 -2.849504E+04  0.000000E+00  0.000000E+00  0.000000E+00  0.000000E+00  0.000000E+00  0.000000E+00  0.000000E+00  0.000000E+00  0.000000E+00  3.565026E+01 -3.548476E-07 -3.654190E+02
     641  2.053903E+03  4.821431E+01 -2.841310E+04  0.000000E+00  0.000000E+00  0.000000E+00  0.000000E+00  0.000000E+00  0.000000E+00  0.000000E+00  0.000000E+00  0.000000E+00  3.609138E+01 -2.382933E-07 -3.699523E+02
     651  2.052455E+03  5.015033E+01 -2.832690E+04  0.000000E+00  0.000000E+00  0.000000E+00  0.000000E+00  0.000000E+00  0.000000E+00  0.000000E+00  0.000000E+00  0.000000E+00  3.659280E+01 -2.028403E-07 -3.750935E+02
     661  2.051181E+03  5.167987E+01 -2.824198E+04  0.000000E+00  0.000000E+00  0.000000E+00  0.000000E+00  0.000000E+00  0.000000E+00  0.000000E+00  0.000000E+00  0.000000E+00  3.710273E+01 -1.231540E-07 -3.803143E+02
     671  2.050388E+03  5.283422E+01 -2.816263E+04  0.000000E+00  0.000000E+00  0.000000E+00  0.000000E+00  0.000000E+00  0.000000E+00  0.000000E+00  0.000000E+00  0.000000E+00  3.751675E+01  9.818502E-08 -3.845469E+02
     681  2.050316E+03  5.362000E+01 -2.809266E+04  0.000000E+00  0.000000E+00  0.000000E+00  0.000000E+00  0.000000E+00  0.000000E+00  0.000000E+00  0.000000E+00  0.000000E+00  3.776894E+01  5.017492E-07 -3.871205E+02
     691  2.050990E+03  5.400924E+01 -2.803439E+04  0.000000E+00  0.000000E+00  0.000000E+00  0.000000E+00  0.000000E+00  0.000000E+00  0.000000E+00  0.000000E+00  0.000000E+00  3.786353E+01  1.055061E-06 -3.880824E+02
     701  2.052059E+03  5.401689E+01 -2.798746E+04  0.000000E+00  0.000000E+00  0.000000E+00  0.000000E+00  0.000000E+00  0.000000E+00  0.000000E+00  0.000000E+00  0.000000E+00  3.781645E+01  1.720540E-06 -3.875926E+02
     711  2.053122E+03  5.368430E+01 -2.795183E+04  0.000000E+00  0.000000E+00  0.000000E+00  0.000000E+00  0.000000E+00  0.000000E+00  0.000000E+00  0.000000E+00  0.000000E+00  3.764071E+01  2.481720E-06 -3.857835E+02
     721  2.054139E+03  5.305161E+01 -2.793110E+04  0.000000E+00  0.000000E+00  0.000000E+00  0.000000E+00  0.000000E+00  0.000000E+00  0.000000E+00  0.000000E+00  0.000000E+00  3.733064E+01  3.307004E-06 -3.826004E+02
     731  2.055437E+03  5.217568E+01 -2.793119E+04  0.000000E+00  0.000000E+00  0.000000E+00  0.000000E+00  0.000000E+00  0.000000E+00  0.000000E+00  0.000000E+00  0.000000E+00  3.695769E+01  4.132721E-06 -3.787818E+02
     741  2.057254E+03  5.113521E+01 -2.795367E+04  0.000000E+00  0.000000E+00  0.000000E+00  0.000000E+00  0.000000E+00  0.000000E+00  0.000000E+00  0.000000E+00  0.000000E+00  3.657386E+01  4.893670E-06 -3.748540E+02
     751  2.059634E+03  4.995584E+01 -2.799457E+04  0.000000E+00  0.000000E+00  0.000000E+00  0.000000E+00  0.000000E+00  0.000000E+00  0.000000E+00  0.000000E+00  0.000000E+00  3.621265E+01  5.538772E-06 -3.711601E+02
     761  2.062466E+03  4.868545E+01 -2.804602E+04  0.000000E+00  0.000000E+00  0.000000E+00  0.000000E+00  0.000000E+00  0.000000E+00  0.000000E+00  0.000000E+00  0.000000E+00  3.590654E+01  6.040143E-06 -3.680338E+02
     771  2.065594E+03  4.743694E+01 -2.810000E+04  0.000000E+00  0.000000E+00  0.000000E+00  0.000000E+00  0.000000E+00  0.000000E+00  0.000000E+00  0.000000E+00  0.000000E+00  3.566984E+01  6.397664E-06 -3.656169E+02
     781  2.068971E+03  4.629536E+01 -2.815222E+04  0.000000E+00  0.000000E+00  0.000000E+00  0.000000E+00  0.000000E+00  0.000000E+00  0.000000E+00  0.000000E+00  0.000000E+00  3.550227E+01  6.655964E-06 -3.639058E+02
     791  2.072630E+03  4.528884E+01 -2.820171E+04  0.000000E+00  0.000000E+00  0.000000E+00  0.000000E+00  0.000000E+00  0.000000E+00  0.000000E+00  0.000000E+00  0.000000E+00  3.537557E+01  6.872378E-06 -3.626103E+02
     801  2.076656E+03  4.447004E+01 -2.824932E+04  0.000000E+00  0.000000E+00  0.000000E+00  0.000000E+00  0.000000E+00  0.000000E+00  0.000000E+00  0.000000E+00  0.000000E+00  3.526364E+01  7.099208E-06 -3.614625E+02
     811  2.081004E+03  4.393768E+01 -2.829479E+04  0.000000E+00  0.000000E+00  0.000000E+00  0.000000E+00  0.000000E+00  0.000000E+00  0.000000E+00  0.000000E+00  0.000000E+00  3.515952E+01  7.384206E-06 -3.603927E+02
     821  2.085488E+03  4.382031E+01 -2.833653E+04  0.000000E+00  0.000000E+00  0.000000E+00  0.000000E+00  0.000000E+00  0.000000E+00  0.000000E+00  0.000000E+00  0.000000E+00  3.505848E+01  7.743489E-06 -3.593543E+02
     831  2.089883E+03  4.428719E+01 -2.837307E+04  0.000000E+00  0.000000E+00  0.000000E+00  0.000000E+00  0.000000E+00  0.000000E+00  0.000000E+00  0.000000E+00  0.000000E+00  3.494128E+01  8.152945E-06 -3.581514E+02
     841  2.094096E+03  4.555933E+01 -2.840491E+04  0.000000E+00  0.000000E+00  0.000000E+00  0.000000E+00  0.000000E+00  0.000000E+00  0.000000E+00  0.000000E+00  0.000000E+00  3.479318E+01  8.567785E-06 -3.566341E+02
     851  2.098112E+03  4.786927E+01 -2.843339E+04  0.000000E+00  0.000000E+00  0.000000E+00  0.000000E+00  0.000000E+00  0.000000E+00  0.000000E+00  0.000000E+00  0.000000E+00  3.459224E+01  8.944818E-06 -3.545768E+02
     861  2.101924E+03  5.148681E+01 -2.845926E+04  0.000000E+00  0.000000E+00  0.000000E+00  0.000000E+00  0.000000E+00  0.000000E+00  0.000000E+00  0.000000E+00  0.000000E+00  3.430986E+01  9.262749E-06 -3.516850E+02
     871  2.105523E+03  5.678679E+01 -2.848216E+04  0.000000E+00  0.000000E+00  0.000000E+00  0.000000E+00  0.000000E+00  0.000000E+00  0.000000E+00  0.000000E+00  0.000000E+00  3.393463E+01  9.534470E-06 -3.478398E+02
     881  2.108878E+03  6.448360E+01 -2.849973E+04  0.000000E+00  0.000000E+00  0.000000E+00  0.000000E+00  0.000000E+00  0.000000E+00  0.000000E+00  0.000000E+00  0.000000E+00  3.349315E+01  9.813579E-06 -3.433118E+02
     891  2.111941E+03  7.529541E+01 -2.850890E+04  0.000000E+00  0.000000E+00  0.000000E+00  0.000000E+00  0.000000E+00  0.000000E+00  0.000000E+00  0.000000E+00  0.000000E+00  3.305701E+01  1.021026E-05 -3.388326E+02
     901  2.114671E+03  8.849253E+01 -2.850975E+04  0.000000E+00  0.000000E+00  0.000000E+00  0.000000E+00  0.000000E+00  0.000000E+00  0.000000E+00  0.000000E+00  0.000000E+00  3.271182E+01  1.087072E-05 -3.352789E+02
     911  2.117006E+03  1.026417E+02 -2.850338E+04  0.000000E+00  0.000000E+00  0.000000E+00  0.000000E+00  0.000000E+00  0.000000E+00  0.000000E+00  0.000000E+00  0.000000E+00  3.253247E+01  1.195692E-05 -3.334185E+02
     921  2.118774E+03  1.187484E+02 -2.848326E+04  0.000000E+00  0.000000E+00  0.000000E+00  0.000000E+00  0.000000E+00  0.000000E+00  0.000000E+00  0.000000E+00  0.000000E+00  3.255986E+01  1.360810E-05 -3.336740E+02
     931  2.119774E+03  1.392446E+02 -2.843825E+04  0.000000E+00  0.000000E+00  0.000000E+00  0.000000E+00  0.000000E+00  0.000000E+00  0.000000E+00  0.000000E+00  0.000000E+00  3.274587E+01  1.577782E-05 -3.355635E+02
     941  2.119941E+03  1.605733E+02 -2.837133E+04  0.000000E+00  0.000000E+00  0.000000E+00  0.000000E+00  0.000000E+00  0.000000E+00  0.000000E+00  0.000000E+00  0.000000E+00  3.292477E+01  1.813227E-05 -3.373989E+02
     951  2.119443E+03  1.748463E+02 -2.830093E+04  0.000000E+00  0.000000E+00  0.000000E+00  0.000000E+00  0.000000E+00  0.000000E+00  0.000000E+00  0.000000E+00  0.000000E+00  3.290997E+01  2.023734E-05 -3.372643E+02
     961  2.118646E+03  1.800780E+02 -2.823737E+04  0.000000E+00  0.000000E+00  0.000000E+00  0.000000E+00  0.000000E+00  0.000000E+00  0.000000E+00  0.000000E+00  0.000000E+00  3.264830E+01  2.188466E-05 -3.345999E+02
     971  2.117847E+03  1.790143E+02 -2.818132E+04  0.000000E+00  0.000000E+00  0.000000E+00  0.000000E+00  0.000000E+00  0.000000E+00  0.000000E+00  0.000000E+00  0.000000E+00  3.219789E+01  2.310077E-05 -3.299924E+02
     981  2.117100E+03  1.749949E+02 -2.812966E+04  0.000000E+00  0.000000E+00  0.000000E+00  0.000000E+00  0.000000E+00  0.000000E+00  0.000000E+00  0.000000E+00  0.000000E+00  3.162232E+01  2.401960E-05 -3.240921E+02
     991  2.116217E+03  1.698203E+02 -2.808002E+04  0.000000E+00  0.000000E+00  0.000000E+00  0.000000E+00  0.000000E+00  0.000000E+00  0.000000E+00  0.000000E+00  0.000000E+00  3.093723E+01  2.478065E-05 -3.170627E+02
    1001  2.115047E+03  1.644769E+02 -2.803189E+04  0.000000E+00  0.000000E+00  0.000000E+00  0.000000E+00  0.000000E+00  0.000000E+00  0.000000E+00  0.000000E+00  0.000000E+00  3.015367E+01  2.549241E-05 -3.090233E+02
    1011  2.113734E+03  1.593229E+02 -2.798957E+04  0.000000E+00  0.000000E+00  0.000000E+00  0.000000E+00  0.000000E+00  0.000000E+00  0.000000E+00  0.000000E+00  0.000000E+00  2.933312E+01  2.620170E-05 -3.006113E+02
    1021  2.112678E+03  1.543910E+02 -2.796095E+04  0.000000E+00  0.000000E+00  0.000000E+00  0.000000E+00  0.000000E+00  0.000000E+00  0.000000E+00  0.000000E+00  0.000000E+00  2.853853E+01  2.690057E-05 -2.924752E+02
    1031  2.112361E+03  1.493551E+02 -2.795469E+04  0.000000E+00  0.000000E+00  0.000000E+00  0.000000E+00  0.000000E+00  0.000000E+00  0.000000E+00  0.000000E+00  0.000000E+00  2.781060E+01  2.756579E-05 -2.850326E+02
    1041  2.113200E+03  1.439308E+02 -2.797736E+04  0.000000E+00  0.000000E+00  0.000000E+00  0.000000E+00  0.000000E+00  0.000000E+00  0.000000E+00  0.000000E+00  0.000000E+00  2.716458E+01  2.811213E-05 -2.784396E+02
    1051  2.115468E+03  1.379890E+02 -2.803127E+04  0.000000E+00  0.000000E+00  0.000000E+00  0.000000E+00  0.000000E+00  0.000000E+00  0.000000E+00  0.000000E+00  0.000000E+00  2.662195E+01  2.842584E-05 -2.729167E+02
    1061  2.119167E+03  1.317362E+02 -2.811208E+04  0.000000E+00  0.000000E+00  0.000000E+00  0.000000E+00  0.000000E+00  0.000000E+00  0.000000E+00  0.000000E+00  0.000000E+00  2.619383E+01  2.842173E-05 -2.685750E+02
    1071  2.124054E+03  1.255384E+02 -2.821007E+04  0.000000E+00  0.000000E+00  0.000000E+00  0.000000E+00  0.000000E+00  0.000000E+00  0.000000E+00  0.000000E+00  0.000000E+00  2.589323E+01  2.798272E-05 -2.655459E+02
    1081  2.129847E+03  1.196455E+02 -2.831603E+04  0.000000E+00  0.000000E+00  0.000000E+00  0.000000E+00  0.000000E+00  0.000000E+00  0.000000E+00  0.000000E+00  0.000000E+00  2.572911E+01  2.703806E-05 -2.639173E+02
    1091  2.136356E+03  1.142377E+02 -2.842499E+04  0.000000E+00  0.000000E+00  0.000000E+00  0.000000E+00  0.000000E+00  0.000000E+00  0.000000E+00  0.000000E+00  0.000000E+00  2.570069E+01  2.556943E-05 -2.636790E+02
    1101  2.143549E+03  1.093679E+02 -2.853702E+04  0.000000E+00  0.000000E+00  0.000000E+00  0.000000E+00  0.000000E+00  0.000000E+00  0.000000E+00  0.000000E+00  0.000000E+00  2.581842E+01  2.347670E-05 -2.649348E+02
    1111  2.151472E+03  1.050957E+02 -2.865460E+04  0.000000E+00  0.000000E+00  0.000000E+00  0.000000E+00  0.000000E+00  0.000000E+00  0.000000E+00  0.000000E+00  0.000000E+00  2.608950E+01  2.073164E-05 -2.677541E+02
    1121  2.160028E+03  1.014696E+02 -2.877777E+04  0.000000E+00  0.000000E+00  0.000000E+00  0.000000E+00  0.000000E+00  0.000000E+00  0.000000E+00  0.000000E+00  0.000000E+00  2.649442E+01  1.740330E-05 -2.719297E+02
    1131  2.168913E+03  9.855071E+01 -2.890238E+04  0.000000E+00  0.000000E+00  0.000000E+00  0.000000E+00  0.000000E+00  0.000000E+00  0.000000E+00  0.000000E+00  0.000000E+00  2.703434E+01  1.356660E-05 -2.774760E+02
    1141  2.177593E+03  9.640549E+01 -2.902027E+04  0.000000E+00  0.000000E+00  0.000000E+00  0.000000E+00  0.000000E+00  0.000000E+00  0.000000E+00  0.000000E+00  0.000000E+00  2.766122E+01  9.448978E-06 -2.838953E+02
    1151  2.185565E+03  9.504430E+01 -2.912376E+04  0.000000E+00  0.000000E+00  0.000000E+00  0.000000E+00  0.000000E+00  0.000000E+00  0.000000E+00  0.000000E+00  0.000000E+00  2.833060E+01  5.262781E-06 -2.907309E+02
    1161  2.192467E+03  9.450108E+01 -2.920714E+04  0.000000E+00  0.000000E+00  0.000000E+00  0.000000E+00  0.000000E+00  0.000000E+00  0.000000E+00  0.000000E+00  0.000000E+00  2.896943E+01  1.397528E-06 -2.972335E+02
    1171  2.198184E+03  9.474136E+01 -2.926818E+04  0.000000E+00  0.000000E+00  0.000000E+00  0.000000E+00  0.000000E+00  0.000000E+00  0.000000E+00  0.000000E+00  0.000000E+00  2.958730E+01 -1.897856E-06 -3.035138E+02
    1181  2.202784E+03  9.577770E+01 -2.930716E+04  0.000000E+00  0.000000E+00  0.000000E+00  0.000000E+00  0.000000E+00  0.000000E+00  0.000000E+00  0.000000E+00  0.000000E+00  3.018506E+01 -4.468331E-06 -3.095863E+02
    1191  2.206405E+03  9.756872E+01 -2.932601E+04  0.000000E+00  0.000000E+00  0.000000E+00  0.000000E+00  0.000000E+00  0.000000E+00  0.000000E+00  0.000000E+00  0.000000E+00  3.074884E+01 -6.157687E-06 -3.153092E+02
    1201  2.209215E+03  9.992302E+01 -2.932744E+04  0.000000E+00  0.000000E+00  0.000000E+00  0.000000E+00  0.000000E+00  0.000000E+00  0.000000E+00  0.000000E+00  0.000000E+00  3.129010E+01 -6.925358E-06 -3.208047E+02
    1211  2.211303E+03  1.025812E+02 -2.931331E+04  0.000000E+00  0.000000E+00  0.000000E+00  0.000000E+00  0.000000E+00  0.000000E+00  0.000000E+00  0.000000E+00  0.000000E+00  3.179585E+01 -6.865587E-06 -3.259428E+02
    1221  2.212706E+03  1.052816E+02 -2.928494E+04  0.000000E+00  0.000000E+00  0.000000E+00  0.000000E+00  0.000000E+00  0.000000E+00  0.000000E+00  0.000000E+00  0.000000E+00  3.224668E+01 -6.056572E-06 -3.305250E+02
    1231  2.213463E+03  1.077511E+02 -2.924392E+04  0.000000E+00  0.000000E+00  0.000000E+00  0.000000E+00  0.000000E+00  0.000000E+00  0.000000E+00  0.000000E+00  0.000000E+00  3.260970E+01 -4.636396E-06 -3.342151E+02
    1241  2.213681E+03  1.097879E+02 -2.919291E+04  0.000000E+00  0.000000E+00  0.000000E+00  0.000000E+00  0.000000E+00  0.000000E+00  0.000000E+00  0.000000E+00  0.000000E+00  3.289312E+01 -2.747334E-06 -3.371057E+02
    1251  2.213481E+03  1.112728E+02 -2.913498E+04  0.000000E+00  0.000000E+00  0.000000E+00  0.000000E+00  0.000000E+00  0.000000E+00  0.000000E+00  0.000000E+00  0.000000E+00  3.310481E+01 -6.023682E-07 -3.392754E+02
    1261  2.212984E+03  1.121621E+02 -2.907328E+04  0.000000E+00  0.000000E+00  0.000000E+00  0.000000E+00  0.000000E+00  0.000000E+00  0.000000E+00  0.000000E+00  0.000000E+00  3.326519E+01  1.583756E-06 -3.409333E+02
    1271  2.212275E+03  1.124619E+02 -2.901074E+04  0.000000E+00  0.000000E+00  0.000000E+00  0.000000E+00  0.000000E+00  0.000000E+00  0.000000E+00  0.000000E+00  0.000000E+00  3.338365E+01  3.519172E-06 -3.421777E+02
    1281  2.211394E+03  1.122377E+02 -2.894989E+04  0.000000E+00  0.000000E+00  0.000000E+00  0.000000E+00  0.000000E+00  0.000000E+00  0.000000E+00  0.000000E+00  0.000000E+00  3.346305E+01  5.000838E-06 -3.430325E+02
    1291  2.210441E+03  1.115486E+02 -2.889367E+04  0.000000E+00  0.000000E+00  0.000000E+00  0.000000E+00  0.000000E+00  0.000000E+00  0.000000E+00  0.000000E+00  0.000000E+00  3.356976E+01  5.884443E-06 -3.441769E+02
    1301  2.209484E+03  1.103906E+02 -2.884451E+04  0.000000E+00  0.000000E+00  0.000000E+00  0.000000E+00  0.000000E+00  0.000000E+00  0.000000E+00  0.000000E+00  0.000000E+00  3.369370E+01  6.137840E-06 -3.454874E+02
    1311  2.208656E+03  1.086560E+02 -2.880527E+04  0.000000E+00  0.000000E+00  0.000000E+00  0.000000E+00  0.000000E+00  0.000000E+00  0.000000E+00  0.000000E+00  0.000000E+00  3.385464E+01  5.911804E-06 -3.471594E+02
    1321  2.208060E+03  1.061855E+02 -2.877822E+04  0.000000E+00  0.000000E+00  0.000000E+00  0.000000E+00  0.000000E+00  0.000000E+00  0.000000E+00  0.000000E+00  0.000000E+00  3.400753E+01  5.439932E-06 -3.487286E+02
    1331  2.207895E+03  1.029850E+02 -2.876633E+04  0.000000E+00  0.000000E+00  0.000000E+00  0.000000E+00  0.000000E+00  0.000000E+00  0.000000E+00  0.000000E+00  0.000000E+00  3.416458E+01  5.026539E-06 -3.503282E+02
    1341  2.208339E+03  9.945126E+01 -2.877086E+04  0.000000E+00  0.000000E+00  0.000000E+00  0.000000E+00  0.000000E+00  0.000000E+00  0.000000E+00  0.000000E+00  0.000000E+00  3.430274E+01  4.844621E-06 -3.517258E+02
    1351  2.209543E+03  9.636616E+01 -2.879131E+04  0.000000E+00  0.000000E+00  0.000000E+00  0.000000E+00  0.000000E+00  0.000000E+00  0.000000E+00  0.000000E+00  0.000000E+00  3.438555E+01  4.965466E-06 -3.525507E+02