 variables=iter,cl,cd,cm,clim,cdim,cmim,clip,cdip,cmip,cljm,cdjm,cmjm,cljp,cdjp,cmjp
 zone t="coefhist",f=point
       1  1.983325E+03  2.668543E+01 -2.970020E+04 -1.223757E-08 -1.753460E+02 -3.155799E+02 -1.468450E-09  1.772072E+02  3.345263E+02  0.000000E+00  0.000000E+00  0.000000E+00  6.280649E+02  3.621484E-04 -9.580183E+03
      11  1.983302E+03  1.399092E+02 -2.948189E+04  8.585499E-07 -1.487454E+02 -2.666405E+02 -4.971669E-07  2.070637E+02  3.920604E+02  0.000000E+00  0.000000E+00  0.000000E+00  6.281485E+02  3.485834E-04 -9.607916E+03
      21  1.982926E+03  1.414190E+02 -2.946124E+04  2.284501E-06 -1.483243E+02 -2.647006E+02 -1.706398E-06  2.072467E+02  3.937013E+02  0.000000E+00  0.000000E+00  0.000000E+00  6.282434E+02  3.347629E-04 -9.635751E+03
      31  1.982378E+03  1.371036E+02 -2.944738E+04  3.639487E-06 -1.492238E+02 -2.653824E+02 -3.102319E-06  2.059882E+02  3.924118E+02  0.000000E+00  0.000000E+00  0.000000E+00  6.283300E+02  3.213119E-04 -9.662243E+03
      41  1.981815E+03  1.330367E+02 -2.942999E+04  4.892339E-06 -1.500778E+02 -2.662347E+02 -4.567586E-06  2.047939E+02  3.911396E+02  0.000000E+00  0.000000E+00  0.000000E+00  6.284061E+02  3.078811E-04 -9.687326E+03
      51  1.981492E+03  1.288362E+02 -2.941378E+04  5.947431E-06 -1.508277E+02 -2.672527E+02 -6.067074E-06  2.034146E+02  3.893133E+02  0.000000E+00  0.000000E+00  0.000000E+00  6.284762E+02  2.945178E-04 -9.711057E+03
      61  1.980868E+03  1.250458E+02 -2.939307E+04  6.874960E-06 -1.514913E+02 -2.683507E+02 -7.611139E-06  2.020938E+02  3.874677E+02  0.000000E+00  0.000000E+00  0.000000E+00  6.285383E+02  2.811793E-04 -9.733392E+03
      71  1.980201E+03  1.213586E+02 -2.937247E+04  7.688141E-06 -1.521107E+02 -2.695828E+02 -9.129872E-06  2.007961E+02  3.853717E+02  0.000000E+00  0.000000E+00  0.000000E+00  6.285943E+02  2.678707E-04 -9.754367E+03
      81  1.979825E+03  1.180612E+02 -2.935405E+04  8.349008E-06 -1.526583E+02 -2.708917E+02 -1.054023E-05  1.996958E+02  3.832697E+02  0.000000E+00  0.000000E+00  0.000000E+00  6.286435E+02  2.545787E-04 -9.773959E+03
      91  1.979248E+03  1.149275E+02 -2.932761E+04  8.918077E-06 -1.532004E+02 -2.723310E+02 -1.183534E-05  1.987475E+02  3.811145E+02  0.000000E+00  0.000000E+00  0.000000E+00  6.286806E+02  2.413027E-04 -9.792061E+03
     101  1.978375E+03  1.119677E+02 -2.929314E+04  9.431103E-06 -1.537279E+02 -2.738758E+02 -1.308606E-05  1.978567E+02  3.788921E+02  0.000000E+00  0.000000E+00  0.000000E+00  6.286628E+02  2.280568E-04 -9.807734E+03
     111  1.977658E+03  1.091524E+02 -2.926177E+04  9.862237E-06 -1.542100E+02 -2.755123E+02 -1.431434E-05  1.969659E+02  3.765862E+02  0.000000E+00  0.000000E+00  0.000000E+00  6.284497E+02  2.149406E-04 -9.817513E+03
     121  1.977640E+03  1.065039E+02 -2.924334E+04  1.016157E-05 -1.546313E+02 -2.772042E+02 -1.543582E-05  1.960872E+02  3.742367E+02  0.000000E+00  0.000000E+00  0.000000E+00  6.279515E+02  2.022762E-04 -9.816933E+03
     131  1.978420E+03  1.039806E+02 -2.923828E+04  1.021520E-05 -1.550085E+02 -2.789226E+02 -1.631722E-05  1.952342E+02  3.718934E+02  0.000000E+00  0.000000E+00  0.000000E+00  6.275490E+02  1.906550E-04 -9.808733E+03
     141  1.979442E+03  1.015401E+02 -2.923672E+04  9.854282E-06 -1.553566E+02 -2.806281E+02 -1.690109E-05  1.944071E+02  3.696119E+02  0.000000E+00  0.000000E+00  0.000000E+00  6.276735E+02  1.806033E-04 -9.800602E+03
     151  1.980086E+03  9.916832E+01 -2.923091E+04  9.052242E-06 -1.556949E+02 -2.822827E+02 -1.723066E-05  1.936193E+02  3.674770E+02  0.000000E+00  0.000000E+00  0.000000E+00  6.279855E+02  1.720559E-04 -9.792613E+03
     161  1.979976E+03  9.691221E+01 -2.921517E+04  7.953081E-06 -1.560005E+02 -2.837888E+02 -1.736332E-05  1.928711E+02  3.655238E+02  0.000000E+00  0.000000E+00  0.000000E+00  6.278827E+02  1.644745E-04 -9.779629E+03
     171  1.979066E+03  9.478045E+01 -2.918490E+04  6.705081E-06 -1.562844E+02 -2.851195E+02 -1.733200E-05  1.921579E+02  3.637866E+02  0.000000E+00  0.000000E+00  0.000000E+00  6.272222E+02  1.574209E-04 -9.760240E+03
     181  1.977894E+03  9.276843E+01 -2.914415E+04  5.387091E-06 -1.565429E+02 -2.862591E+02 -1.717645E-05  1.914637E+02  3.622762E+02  0.000000E+00  0.000000E+00  0.000000E+00  6.263296E+02  1.506818E-04 -9.738723E+03
     191  1.977231E+03  9.084883E+01 -2.910512E+04  4.004089E-06 -1.567701E+02 -2.872023E+02 -1.695840E-05  1.907732E+02  3.609838E+02  0.000000E+00  0.000000E+00  0.000000E+00  6.256776E+02  1.441542E-04 -9.722172E+03
     201  1.977356E+03  8.903162E+01 -2.907709E+04  2.556021E-06 -1.569478E+02 -2.879434E+02 -1.676194E-05  1.900886E+02  3.599005E+02  0.000000E+00  0.000000E+00  0.000000E+00  6.255955E+02  1.376723E-04 -9.716739E+03
     211  1.977985E+03  8.733232E+01 -2.905839E+04  1.047508E-06 -1.570789E+02 -2.884841E+02 -1.666285E-05  1.894236E+02  3.590059E+02  0.000000E+00  0.000000E+00  0.000000E+00  6.260973E+02  1.310048E-04 -9.722876E+03
     221  1.978599E+03  8.575812E+01 -2.903895E+04 -5.047657E-07 -1.571997E+02 -2.888492E+02 -1.667362E-05  1.888048E+02  3.582879E+02  0.000000E+00  0.000000E+00  0.000000E+00  6.267991E+02  1.240607E-04 -9.732938E+03
     231  1.978866E+03  8.436686E+01 -2.901083E+04 -2.071599E-06 -1.573256E+02 -2.890513E+02 -1.674976E-05  1.882683E+02  3.577438E+02  0.000000E+00  0.000000E+00  0.000000E+00  6.272226E+02  1.169361E-04 -9.737749E+03
     241  1.978894E+03  8.326886E+01 -2.897516E+04 -3.613032E-06 -1.574346E+02 -2.890675E+02 -1.685893E-05  1.878476E+02  3.573690E+02  0.000000E+00  0.000000E+00  0.000000E+00  6.272980E+02  1.098220E-04 -9.735914E+03
     251  1.978972E+03  8.258276E+01 -2.893706E+04 -5.094915E-06 -1.574725E+02 -2.888740E+02 -1.700172E-05  1.875619E+02  3.571530E+02  0.000000E+00  0.000000E+00  0.000000E+00  6.272491E+02  1.027498E-04 -9.731257E+03
     261  1.979229E+03  8.235698E+01 -2.889923E+04 -6.493835E-06 -1.574117E+02 -2.884737E+02 -1.718578E-05  1.874063E+02  3.570737E+02  0.000000E+00  0.000000E+00  0.000000E+00  6.272357E+02  9.567812E-05 -9.726595E+03
     271  1.979606E+03  8.255072E+01 -2.886088E+04 -7.765610E-06 -1.572507E+02 -2.879039E+02 -1.741230E-05  1.873580E+02  3.570972E+02  0.000000E+00  0.000000E+00  0.000000E+00  6.272568E+02  8.856882E-05 -9.722193E+03
     281  1.979960E+03  8.305594E+01 -2.881955E+04 -8.859758E-06 -1.570357E+02 -2.872414E+02 -1.767884E-05  1.873908E+02  3.571912E+02  0.000000E+00  0.000000E+00  0.000000E+00  6.272338E+02  8.138404E-05 -9.716835E+03
     291  1.980246E+03  8.382391E+01 -2.877446E+04 -9.780589E-06 -1.567550E+02 -2.864982E+02 -1.797853E-05  1.874750E+02  3.573225E+02  0.000000E+00  0.000000E+00  0.000000E+00  6.271454E+02  7.409102E-05 -9.709918E+03
     301  1.980446E+03  8.476825E+01 -2.872548E+04 -1.058557E-05 -1.563955E+02 -2.856643E+02 -1.829780E-05  1.875727E+02  3.574558E+02  0.000000E+00  0.000000E+00  0.000000E+00  6.269800E+02  6.669649E-05 -9.701013E+03
     311  1.980535E+03  8.572934E+01 -2.867228E+04 -1.130155E-05 -1.560083E+02 -2.847678E+02 -1.861663E-05  1.876360E+02  3.575521E+02  0.000000E+00  0.000000E+00  0.000000E+00  6.267179E+02  5.922312E-05 -9.689857E+03
     321  1.980549E+03  8.654037E+01 -2.861548E+04 -1.192821E-05 -1.556527E+02 -2.838625E+02 -1.891735E-05  1.876238E+02  3.575790E+02  0.000000E+00  0.000000E+00  0.000000E+00  6.263552E+02  5.167173E-05 -9.676624E+03
     331  1.980591E+03  8.713936E+01 -2.855661E+04 -1.243917E-05 -1.553576E+02 -2.829862E+02 -1.919705E-05  1.875207E+02  3.575214E+02  0.000000E+00  0.000000E+00  0.000000E+00  6.259336E+02  4.401540E-05 -9.662082E+03
     341  1.980744E+03  8.758204E+01 -2.849692E+04 -1.281336E-05 -1.551097E+02 -2.821321E+02 -1.947078E-05  1.873415E+02  3.573779E+02  0.000000E+00  0.000000E+00  0.000000E+00  6.255004E+02  3.622240E-05 -9.646870E+03
     351  1.981005E+03  8.785854E+01 -2.843664E+04 -1.305215E-05 -1.549179E+02 -2.813210E+02 -1.975656E-05  1.870698E+02  3.570631E+02  0.000000E+00  0.000000E+00  0.000000E+00  6.250833E+02  2.828565E-05 -9.631237E+03
     361  1.981319E+03  8.782970E+01 -2.837590E+04 -1.317913E-05 -1.547944E+02 -2.805983E+02 -2.006035E-05  1.865896E+02  3.563226E+02  0.000000E+00  0.000000E+00  0.000000E+00  6.246771E+02  2.022999E-05 -9.615024E+03
     371  1.981657E+03  8.725428E+01 -2.831589E+04 -1.322079E-05 -1.547305E+02 -2.799877E+02 -2.038063E-05  1.856957E+02  3.547306E+02  0.000000E+00  0.000000E+00  0.000000E+00  6.242541E+02  1.211054E-05 -9.597822E+03
     381  1.982051E+03  8.580569E+01 -2.825920E+04 -1.318590E-05 -1.547004E+02 -2.794788E+02 -2.069951E-05  1.840608E+02  3.515959E+02  0.000000E+00  0.000000E+00  0.000000E+00  6.237814E+02  4.032541E-06 -9.579128E+03
     391  1.982530E+03  8.307657E+01 -2.820859E+04 -1.307808E-05 -1.546941E+02 -2.790765E+02 -2.097415E-05  1.812403E+02  3.459937E+02  0.000000E+00  0.000000E+00  0.000000E+00  6.232186E+02 -3.806056E-06 -9.558193E+03
     401  1.983058E+03  7.892130E+01 -2.816535E+04 -1.290371E-05 -1.547147E+02 -2.788004E+02 -2.115624E-05  1.770052E+02  3.375193E+02  0.000000E+00  0.000000E+00  0.000000E+00  6.225065E+02 -1.111130E-05 -9.533738E+03
     411  1.983614E+03  7.333578E+01 -2.813108E+04 -1.267529E-05 -1.547485E+02 -2.786629E+02 -2.119072E-05  1.712804E+02  3.259682E+02  0.000000E+00  0.000000E+00  0.000000E+00  6.216100E+02 -1.749628E-05 -9.504661E+03
     421  1.984341E+03  6.657527E+01 -2.810954E+04 -1.242146E-05 -1.549019E+02 -2.789235E+02 -2.100726E-05  1.644042E+02  3.120170E+02  0.000000E+00  0.000000E+00  0.000000E+00  6.206006E+02 -2.256440E-05 -9.471438E+03
     431  1.985552E+03  5.897486E+01 -2.810592E+04 -1.221764E-05 -1.557044E+02 -2.806809E+02 -2.056171E-05  1.572482E+02  2.974785E+02  0.000000E+00  0.000000E+00  0.000000E+00  6.196566E+02 -2.596965E-05 -9.436471E+03
     441  1.987524E+03  4.985602E+01 -2.812508E+04 -1.225321E-05 -1.585501E+02 -2.867211E+02 -1.983942E-05  1.505553E+02  2.838189E+02  0.000000E+00  0.000000E+00  0.000000E+00  6.189865E+02 -2.728746E-05 -9.403227E+03
     451  1.990223E+03  3.695065E+01 -2.816820E+04 -1.285925E-05 -1.661363E+02 -3.022457E+02 -1.886038E-05  1.447340E+02  2.718682E+02  0.000000E+00  0.000000E+00  0.000000E+00  6.186492E+02 -2.572436E-05 -9.373746E+03
     461  1.993316E+03  1.972554E+01 -2.822661E+04 -1.430029E-05 -1.795030E+02 -3.282511E+02 -1.763377E-05  1.402981E+02  2.627492E+02  0.000000E+00  0.000000E+00  0.000000E+00  6.184811E+02 -2.016428E-05 -9.347351E+03
     471  1.996553E+03  4.341007E+00 -2.828011E+04 -1.617531E-05 -1.928543E+02 -3.522779E+02 -1.625810E-05  1.376542E+02  2.573814E+02  0.000000E+00  0.000000E+00  0.000000E+00  6.182489E+02 -1.103286E-05 -9.322324E+03
     481  1.999863E+03 -4.669294E+00 -2.831894E+04 -1.777623E-05 -2.016148E+02 -3.672784E+02 -1.486197E-05  1.367828E+02  2.556853E+02  0.000000E+00  0.000000E+00  0.000000E+00  6.178206E+02  6.847098E-08 -9.297941E+03
     491  2.003271E+03 -7.035254E+00 -2.834469E+04 -1.891023E-05 -2.053140E+02 -3.738544E+02 -1.357599E-05  1.374588E+02  2.572598E+02  0.000000E+00  0.000000E+00  0.000000E+00  6.173138E+02  1.193383E-05 -9.276450E+03
     501  2.006863E+03 -4.929441E+00 -2.836527E+04 -1.979115E-05 -2.059363E+02 -3.758601E+02 -1.252023E-05  1.394609E+02  2.616562E+02  0.000000E+00  0.000000E+00  0.000000E+00  6.169892E+02  2.390002E-05 -9.261724E+03
     511  2.011010E+03 -1.154127E+00 -2.839133E+04 -2.055088E-05 -2.056591E+02 -3.761810E+02 -1.174486E-05  1.421373E+02  2.672535E+02  0.000000E+00  0.000000E+00  0.000000E+00  6.170720E+02  3.556861E-05 -9.256849E+03
     521  2.016332E+03  2.312690E+00 -2.843061E+04 -2.105332E-05 -2.056107E+02 -3.759172E+02 -1.116376E-05  1.446363E+02  2.722024E+02  0.000000E+00  0.000000E+00  0.000000E+00  6.176327E+02  4.669580E-05 -9.262168E+03
     531  2.022658E+03  4.903159E+00 -2.848168E+04 -2.122661E-05 -2.059619E+02 -3.753572E+02 -1.066098E-05  1.465435E+02  2.758349E+02  0.000000E+00  0.000000E+00  0.000000E+00  6.185923E+02  5.714001E-05 -9.275596E+03
     541  2.029226E+03  7.151109E+00 -2.853703E+04 -2.118493E-05 -2.063637E+02 -3.745127E+02 -1.014837E-05  1.479760E+02  2.785427E+02  0.000000E+00  0.000000E+00  0.000000E+00  6.198160E+02  6.692333E-05 -9.294636E+03
     551  2.035236E+03  9.961873E+00 -2.858784E+04 -2.112100E-05 -2.063275E+02 -3.732260E+02 -9.596512E-06  1.492739E+02  2.810339E+02  0.000000E+00  0.000000E+00  0.000000E+00  6.212443E+02  7.616016E-05 -9.318688E+03
     561  2.040364E+03  1.383953E+01 -2.862888E+04 -2.112990E-05 -2.055252E+02 -3.712566E+02 -9.022348E-06  1.506707E+02  2.837624E+02  0.000000E+00  0.000000E+00  0.000000E+00  6.228151E+02  8.492158E-05 -9.347305E+03
     571  2.044693E+03  1.874189E+01 -2.865817E+04 -2.120935E-05 -2.039164E+02 -3.684603E+02 -8.482362E-06  1.522356E+02  2.869248E+02  0.000000E+00  0.000000E+00  0.000000E+00  6.245139E+02  9.311980E-05 -9.380285E+03
     581  2.048333E+03  2.418352E+01 -2.867363E+04 -2.130507E-05 -2.017215E+02 -3.649010E+02 -8.048158E-06  1.539205E+02  2.904845E+02  0.000000E+00  0.000000E+00  0.000000E+00  6.263785E+02  1.005690E-04 -9.417436E+03
     591  2.051355E+03  2.965739E+01 -2.867380E+04 -2.137855E-05 -1.992414E+02 -3.607416E+02 -7.785795E-06  1.556473E+02  2.943040E+02  0.000000E+00  0.000000E+00  0.000000E+00  6.283773E+02  1.070814E-04 -9.457131E+03
     601  2.053711E+03  3.473548E+01 -2.865705E+04 -2.140492E-05 -1.967846E+02 -3.562515E+02 -7.740487E-06  1.573525E+02  2.982062E+02  0.000000E+00  0.000000E+00  0.000000E+00  6.302367E+02  1.125230E-04 -9.494522E+03
     611  2.055214E+03  3.916633E+01 -2.862141E+04 -2.135256E-05 -1.945734E+02 -3.517321E+02 -7.925210E-06  1.589978E+02  3.020155E+02  0.000000E+00  0.000000E+00  0.000000E+00  6.314519E+02  1.168701E-04 -9.522175E+03
     621  2.055662E+03  4.283028E+01 -2.856640E+04 -2.117246E-05 -1.927634E+02 -3.474578E+02 -8.316774E-06  1.605630E+02  3.055811E+02  0.000000E+00  0.000000E+00  0.000000E+00  6.316309E+02  1.202100E-04 -9.534714E+03
     631  2.055116E+03  4.580458E+01 -2.849504E+04 -2.081116E-05 -1.913721E+02 -3.435877E+02 -8.861608E-06  1.620334E+02  3.087764E+02  0.000000E+00  0.000000E+00  0.000000E+00  6.307727E+02  1.226752E-04 -9.532060E+03
     641  2.053903E+03  4.821431E+01 -2.841310E+04 -2.020580E-05 -1.903604E+02 -3.402354E+02 -9.489363E-06  1.633971E+02  3.115187E+02  0.000000E+00  0.000000E+00  0.000000E+00  6.291750E+02  1.243736E-04 -9.518063E+03
     651  2.052455E+03  5.015033E+01 -2.832690E+04 -1.931387E-05 -1.896577E+02 -3.374778E+02 -1.013473E-05  1.646257E+02  3.137427E+02  0.000000E+00  0.000000E+00  0.000000E+00  6.271869E+02  1.254096E-04 -9.497271E+03
     661  2.051181E+03  5.167987E+01 -2.824198E+04 -1.815216E-05 -1.891704E+02 -3.353244E+02 -1.074996E-05  1.656627E+02  3.153784E+02  0.000000E+00  0.000000E+00  0.000000E+00  6.250583E+02  1.259230E-04 -9.472914E+03
     671  2.050388E+03  5.283422E+01 -2.816263E+04 -1.676965E-05 -1.888083E+02 -3.337567E+02 -1.130131E-05  1.664308E+02  3.163488E+02  0.000000E+00  0.000000E+00  0.000000E+00  6.229046E+02  1.260471E-04 -9.446668E+03
     681  2.050316E+03  5.362000E+01 -2.809266E+04 -1.521149E-05 -1.885034E+02 -3.327302E+02 -1.175627E-05  1.668555E+02  3.165898E+02  0.000000E+00  0.000000E+00  0.000000E+00  6.207586E+02  1.258502E-04 -9.419258E+03
     691  2.050990E+03  5.400924E+01 -2.803439E+04 -1.351289E-05 -1.882326E+02 -3.321898E+02 -1.207918E-05  1.668907E+02  3.160839E+02  0.000000E+00  0.000000E+00  0.000000E+00  6.187230E+02  1.253788E-04 -9.392137E+03
     701  2.052059E+03  5.401689E+01 -2.798746E+04 -1.176257E-05 -1.879470E+02 -3.320263E+02 -1.224036E-05  1.665446E+02  3.148955E+02  0.000000E+00  0.000000E+00  0.000000E+00  6.170044E+02  1.248094E-04 -9.367933E+03
     711  2.053122E+03  5.368430E+01 -2.795183E+04 -1.009927E-05 -1.876275E+02 -3.321346E+02 -1.222789E-05  1.658915E+02  3.131837E+02  0.000000E+00  0.000000E+00  0.000000E+00  6.156852E+02  1.244787E-04 -9.347971E+03
     721  2.054139E+03  5.305161E+01 -2.793110E+04 -8.650769E-06 -1.873291E+02 -3.324781E+02 -1.205012E-05  1.650565E+02  3.111850E+02  0.000000E+00  0.000000E+00  0.000000E+00  6.147092E+02  1.247147E-04 -9.332187E+03
     731  2.055437E+03  5.217568E+01 -2.793119E+04 -7.482958E-06 -1.871146E+02 -3.330327E+02 -1.172836E-05  1.641716E+02  3.091435E+02  0.000000E+00  0.000000E+00  0.000000E+00  6.139283E+02  1.257093E-04 -9.319567E+03
     741  2.057254E+03  5.113521E+01 -2.795367E+04 -6.601283E-06 -1.869864E+02 -3.337297E+02 -1.128600E-05  1.633440E+02  3.072614E+02  0.000000E+00  0.000000E+00  0.000000E+00  6.131982E+02  1.274679E-04 -9.309057E+03
     751  2.059634E+03  4.995584E+01 -2.799457E+04 -5.952537E-06 -1.869699E+02 -3.345224E+02 -1.074604E-05  1.626528E+02  3.056936E+02  0.000000E+00  0.000000E+00  0.000000E+00  6.125046E+02  1.298346E-04 -9.300953E+03
     761  2.062466E+03  4.868545E+01 -2.804602E+04 -5.469972E-06 -1.870817E+02 -3.353760E+02 -1.013460E-05  1.621473E+02  3.045426E+02  0.000000E+00  0.000000E+00  0.000000E+00  6.119477E+02  1.326229E-04 -9.296736E+03
     771  2.065594E+03  4.743694E+01 -2.810000E+04 -5.101069E-06 -1.872922E+02 -3.362165E+02 -9.484717E-06  1.618535E+02  3.038775E+02  0.000000E+00  0.000000E+00  0.000000E+00  6.116475E+02  1.357001E-04 -9.298101E+03
     781  2.068971E+03  4.629536E+01 -2.815222E+04 -4.799405E-06 -1.875323E+02 -3.369276E+02 -8.836618E-06  1.617555E+02  3.037046E+02  0.000000E+00  0.000000E+00  0.000000E+00  6.116943E+02  1.389373E-04 -9.306451E+03
     791  2.072630E+03  4.528884E+01 -2.820171E+04 -4.528442E-06 -1.877030E+02 -3.373590E+02 -8.238611E-06  1.617949E+02  3.039640E+02  0.000000E+00  0.000000E+00  0.000000E+00  6.121695E+02  1.421842E-04 -9.323043E+03
     801  2.076656E+03  4.447004E+01 -2.824932E+04 -4.270136E-06 -1.876846E+02 -3.373218E+02 -7.744091E-06  1.618917E+02  3.045402E+02  0.000000E+00  0.000000E+00  0.000000E+00  6.130982E+02  1.452922E-04 -9.348150E+03
     811  2.081004E+03  4.393768E+01 -2.829479E+04 -4.019543E-06 -1.873568E+02 -3.366162E+02 -7.405901E-06  1.619719E+02  3.052861E+02  0.000000E+00  0.000000E+00  0.000000E+00  6.144095E+02  1.481427E-04 -9.380449E+03
     821  2.085488E+03  4.382031E+01 -2.833653E+04 -3.768943E-06 -1.866131E+02 -3.350640E+02 -7.265154E-06  1.620062E+02  3.060807E+02  0.000000E+00  0.000000E+00  0.000000E+00  6.159451E+02  1.506113E-04 -9.417136E+03
     831  2.089883E+03  4.428719E+01 -2.837307E+04 -3.493349E-06 -1.853833E+02 -3.325551E+02 -7.340158E-06  1.620355E+02  3.068959E+02  0.000000E+00  0.000000E+00  0.000000E+00  6.175763E+02  1.525771E-04 -9.455838E+03
     841  2.094096E+03  4.555933E+01 -2.840491E+04 -3.155075E-06 -1.836625E+02 -3.290971E+02 -7.622878E-06  1.621713E+02  3.078482E+02  0.000000E+00  0.000000E+00  0.000000E+00  6.192515E+02  1.539293E-04 -9.495462E+03
     851  2.098112E+03  4.786927E+01 -2.843339E+04 -2.718066E-06 -1.815165E+02 -3.248370E+02 -8.081705E-06  1.626042E+02  3.092383E+02  0.000000E+00  0.000000E+00  0.000000E+00  6.209773E+02  1.545482E-04 -9.535924E+03
     861  2.101924E+03  5.148681E+01 -2.845926E+04 -2.157975E-06 -1.790432E+02 -3.199748E+02 -8.677559E-06  1.636827E+02  3.117611E+02  0.000000E+00  0.000000E+00  0.000000E+00  6.227619E+02  1.542865E-04 -9.577215E+03
     871  2.105523E+03  5.678679E+01 -2.848216E+04 -1.478466E-06 -1.763652E+02 -3.147664E+02 -9.392874E-06  1.659365E+02  3.165410E+02  0.000000E+00  0.000000E+00  0.000000E+00  6.245644E+02  1.529379E-04 -9.618463E+03
     881  2.108878E+03  6.448360E+01 -2.849973E+04 -7.007666E-07 -1.735839E+02 -3.094191E+02 -1.025362E-05  1.701385E+02  3.252122E+02  0.000000E+00  0.000000E+00  0.000000E+00  6.262981E+02  1.501525E-04 -9.657922E+03
     891  2.111941E+03  7.529541E+01 -2.850890E+04  1.470955E-07 -1.707829E+02 -3.041149E+02 -1.133647E-05  1.768785E+02  3.389545E+02  0.000000E+00  0.000000E+00  0.000000E+00  6.278341E+02  1.454293E-04 -9.693094E+03
     901  2.114671E+03  8.849253E+01 -2.850975E+04  1.033680E-06 -1.680295E+02 -2.990135E+02 -1.267657E-05  1.849680E+02  3.550200E+02  0.000000E+00  0.000000E+00  0.000000E+00  6.290145E+02  1.384215E-04 -9.721159E+03
     911  2.117006E+03  1.026417E+02 -2.850338E+04  1.929412E-06 -1.653623E+02 -2.942059E+02 -1.409136E-05  1.917470E+02  3.677549E+02  0.000000E+00  0.000000E+00  0.000000E+00  6.296814E+02  1.295302E-04 -9.739607E+03
     921  2.118774E+03  1.187484E+02 -2.848326E+04  2.812755E-06 -1.628327E+02 -2.897943E+02 -1.534875E-05  1.958223E+02  3.746857E+02  0.000000E+00  0.000000E+00  0.000000E+00  6.296821E+02  1.195822E-04 -9.746142E+03
     931  2.119774E+03  1.392446E+02 -2.843825E+04  3.673853E-06 -1.605169E+02 -2.858893E+02 -1.635052E-05  1.973275E+02  3.766279E+02  0.000000E+00  0.000000E+00  0.000000E+00  6.289551E+02  1.092475E-04 -9.739884E+03
     941  2.119941E+03  1.605733E+02 -2.837133E+04  4.504646E-06 -1.585007E+02 -2.826080E+02 -1.711244E-05  1.969604E+02  3.753296E+02  0.000000E+00  0.000000E+00  0.000000E+00  6.275893E+02  9.886638E-05 -9.722184E+03
     951  2.119443E+03  1.748463E+02 -2.830093E+04  5.273543E-06 -1.568793E+02 -2.801000E+02 -1.770237E-05  1.953682E+02  3.721238E+02  0.000000E+00  0.000000E+00  0.000000E+00  6.257480E+02  8.860065E-05 -9.695385E+03
     961  2.118646E+03  1.800780E+02 -2.823737E+04  5.910115E-06 -1.557099E+02 -2.784769E+02 -1.819796E-05  1.931070E+02  3.679958E+02  0.000000E+00  0.000000E+00  0.000000E+00  6.236185E+02  7.852308E-05 -9.662139E+03
     971  2.117847E+03  1.790143E+02 -2.818132E+04  6.320354E-06 -1.550100E+02 -2.777747E+02 -1.865818E-05  1.906194E+02  3.636108E+02  0.000000E+00  0.000000E+00  0.000000E+00  6.213786E+02  6.866575E-05 -9.625072E+03
     981  2.117100E+03  1.749949E+02 -2.812966E+04  6.427225E-06 -1.547377E+02 -2.778937E+02 -1.909554E-05  1.881831E+02  3.592243E+02  0.000000E+00  0.000000E+00  0.000000E+00  6.191659E+02  5.911120E-05 -9.586357E+03
     991  2.116217E+03  1.698203E+02 -2.808002E+04  6.188953E-06 -1.547879E+02 -2.785889E+02 -1.946988E-05  1.859852E+02  3.549413E+02  0.000000E+00  0.000000E+00  0.000000E+00  6.170618E+02  4.999402E-05 -9.547486E+03
    1001  2.115047E+03  1.644769E+02 -2.803189E+04  5.614634E-06 -1.550390E+02 -2.795936E+02 -1.972651E-05  1.840609E+02  3.507314E+02  0.000000E+00  0.000000E+00  0.000000E+00  6.151123E+02  4.142201E-05 -9.509567E+03
    1011  2.113734E+03  1.593229E+02 -2.798957E+04  4.769952E-06 -1.554410E+02 -2.808440E+02 -1.981967E-05  1.823148E+02  3.464750E+02  0.000000E+00  0.000000E+00  0.000000E+00  6.133407E+02  3.347457E-05 -9.473457E+03
    1021  2.112678E+03  1.543910E+02 -2.796095E+04  3.740858E-06 -1.560618E+02 -2.825248E+02 -1.971605E-05  1.806068E+02  3.420798E+02  0.000000E+00  0.000000E+00  0.000000E+00  6.117666E+02  2.623858E-05 -9.439862E+03
    1031  2.112361E+03  1.493551E+02 -2.795469E+04  2.619395E-06 -1.570872E+02 -2.850362E+02 -1.939839E-05  1.788320E+02  3.375801E+02  0.000000E+00  0.000000E+00  0.000000E+00  6.104165E+02  1.982905E-05 -9.409382E+03
    1041  2.113200E+03  1.439308E+02 -2.797736E+04  1.441015E-06 -1.586640E+02 -2.887609E+02 -1.886958E-05  1.769714E+02  3.331442E+02  0.000000E+00  0.000000E+00  0.000000E+00  6.093463E+02  1.442144E-05 -9.382817E+03
    1051  2.115468E+03  1.379890E+02 -2.803127E+04  1.978796E-07 -1.608612E+02 -2.937418E+02 -1.815984E-05  1.750768E+02  3.290006E+02  0.000000E+00  0.000000E+00  0.000000E+00  6.086484E+02  1.022435E-05 -9.361287E+03
    1061  2.119167E+03  1.317362E+02 -2.811208E+04 -1.130728E-06 -1.635305E+02 -2.995319E+02 -1.732544E-05  1.732682E+02  3.254221E+02  0.000000E+00  0.000000E+00  0.000000E+00  6.084770E+02  7.338274E-06 -9.346801E+03
    1071  2.124054E+03  1.255384E+02 -2.821007E+04 -2.562357E-06 -1.663919E+02 -3.054781E+02 -1.644161E-05  1.716715E+02  3.225929E+02  0.000000E+00  0.000000E+00  0.000000E+00  6.090161E+02  5.712584E-06 -9.342044E+03
    1081  2.129847E+03  1.196455E+02 -2.831603E+04 -4.085498E-06 -1.692678E+02 -3.112054E+02 -1.558727E-05  1.703762E+02  3.205858E+02  0.000000E+00  0.000000E+00  0.000000E+00  6.104023E+02  5.198254E-06 -9.349499E+03
    1091  2.136356E+03  1.142377E+02 -2.842499E+04 -5.689828E-06 -1.720100E+02 -3.164675E+02 -1.483088E-05  1.694188E+02  3.193616E+02  0.000000E+00  0.000000E+00  0.000000E+00  6.126794E+02  5.582431E-06 -9.370793E+03
    1101  2.143549E+03  1.093679E+02 -2.853702E+04 -7.304397E-06 -1.745641E+02 -3.211912E+02 -1.422723E-05  1.687776E+02  3.187931E+02  0.000000E+00  0.000000E+00  0.000000E+00  6.158057E+02  6.609893E-06 -9.406630E+03
    1111  2.151472E+03  1.050957E+02 -2.865460E+04 -8.853636E-06 -1.768871E+02 -3.253487E+02 -1.381644E-05  1.684038E+02  3.187384E+02  0.000000E+00  0.000000E+00  0.000000E+00  6.196571E+02  8.009816E-06 -9.456321E+03
    1121  2.160028E+03  1.014696E+02 -2.877777E+04 -1.028504E-05 -1.789332E+02 -3.288839E+02 -1.361808E-05  1.682157E+02  3.190205E+02  0.000000E+00  0.000000E+00  0.000000E+00  6.239900E+02  9.539087E-06 -9.516660E+03
    1131  2.168913E+03  9.855071E+01 -2.890238E+04 -1.156442E-05 -1.806193E+02 -3.316640E+02 -1.362124E-05  1.681184E+02  3.194371E+02  0.000000E+00  0.000000E+00  0.000000E+00  6.284224E+02  1.102883E-05 -9.581405E+03
    1141  2.177593E+03  9.640549E+01 -2.902027E+04 -1.268299E-05 -1.818664E+02 -3.335292E+02 -1.378863E-05  1.680517E+02  3.198354E+02  0.000000E+00  0.000000E+00  0.000000E+00  6.325660E+02  1.241093E-05 -9.643782E+03
    1151  2.185565E+03  9.504430E+01 -2.912376E+04 -1.360662E-05 -1.826431E+02 -3.343958E+02 -1.407472E-05  1.679715E+02  3.200837E+02  0.000000E+00  0.000000E+00  0.000000E+00  6.361951E+02  1.366857E-05 -9.699616E+03
    1161  2.192467E+03  9.450108E+01 -2.920714E+04 -1.435570E-05 -1.829433E+02 -3.342680E+02 -1.443703E-05  1.678923E+02  3.201646E+02  0.000000E+00  0.000000E+00  0.000000E+00  6.392445E+02  1.476792E-05 -9.747303E+03
    1171  2.198184E+03  9.474136E+01 -2.926818E+04 -1.493784E-05 -1.828562E+02 -3.332645E+02 -1.483231E-05  1.678911E+02  3.202011E+02  0.000000E+00  0.000000E+00  0.000000E+00  6.417255E+02  1.566766E-05 -9.786437E+03
    1181  2.202784E+03  9.577770E+01 -2.930716E+04 -1.535225E-05 -1.824347E+02 -3.315153E+02 -1.521852E-05  1.680684E+02  3.204045E+02  0.000000E+00  0.000000E+00  0.000000E+00  6.436817E+02  1.632428E-05 -9.817071E+03
    1191  2.206405E+03  9.756872E+01 -2.932601E+04 -1.559890E-05 -1.817460E+02 -3.292214E+02 -1.556645E-05  1.684768E+02  3.209433E+02  0.000000E+00  0.000000E+00  0.000000E+00  6.451486E+02  1.667918E-05 -9.839267E+03
    1201  2.209215E+03  9.992302E+01 -2.932744E+04 -1.568502E-05 -1.808762E+02 -3.266187E+02 -1.587005E-05  1.690664E+02  3.218468E+02  0.000000E+00  0.000000E+00  0.000000E+00  6.461309E+02  1.665479E-05 -9.852932E+03
    1211  2.211303E+03  1.025812E+02 -2.931331E+04 -1.560767E-05 -1.798993E+02 -3.239181E+02 -1.615042E-05  1.697178E+02  3.229919E+02  0.000000E+00  0.000000E+00  0.000000E+00  6.465830E+02  1.615282E-05 -9.857539E+03
    1221  2.212706E+03  1.052816E+02 -2.928494E+04 -1.538595E-05 -1.788739E+02 -3.213216E+02 -1.644348E-05  1.702690E+02  3.241129E+02  0.000000E+00  0.000000E+00  0.000000E+00  6.464288E+02  1.510032E-05 -9.852368E+03
    1231  2.213463E+03  1.077511E+02 -2.924392E+04 -1.504011E-05 -1.778806E+02 -3.190132E+02 -1.677865E-05  1.705868E+02  3.249100E+02  0.000000E+00  0.000000E+00  0.000000E+00  6.456294E+02  1.349884E-05 -9.837248E+03
    1241  2.213681E+03  1.097879E+02 -2.919291E+04 -1.462227E-05 -1.769613E+02 -3.170804E+02 -1.716227E-05  1.705886E+02  3.251302E+02  0.000000E+00  0.000000E+00  0.000000E+00  6.441980E+02  1.146034E-05 -9.812653E+03
    1251  2.213481E+03  1.112728E+02 -2.913498E+04 -1.416251E-05 -1.761466E+02 -3.155303E+02 -1.757296E-05  1.702385E+02  3.245890E+02  0.000000E+00  0.000000E+00  0.000000E+00  6.422002E+02  9.169926E-06 -9.779690E+03
    1261  2.212984E+03  1.121621E+02 -2.907328E+04 -1.367677E-05 -1.754612E+02 -3.143212E+02 -1.796167E-05  1.695606E+02  3.232210E+02  0.000000E+00  0.000000E+00  0.000000E+00  6.397479E+02  6.846203E-06 -9.739997E+03
    1271  2.212275E+03  1.124619E+02 -2.901074E+04 -1.315298E-05 -1.749410E+02 -3.134056E+02 -1.825617E-05  1.686175E+02  3.210820E+02  0.000000E+00  0.000000E+00  0.000000E+00  6.369928E+02  4.716516E-06 -9.695698E+03
    1281  2.211394E+03  1.122377E+02 -2.894989E+04 -1.258622E-05 -1.746063E+02 -3.127552E+02 -1.841142E-05  1.674827E+02  3.183367E+02  0.000000E+00  0.000000E+00  0.000000E+00  6.341037E+02  2.958157E-06 -9.649222E+03
    1291  2.210441E+03  1.115486E+02 -2.889367E+04 -1.196959E-05 -1.745260E+02 -3.124591E+02 -1.834892E-05  1.662679E+02  3.152171E+02  0.000000E+00  0.000000E+00  0.000000E+00  6.312380E+02  1.689613E-06 -9.603007E+03
    1301  2.209484E+03  1.103906E+02 -2.884451E+04 -1.129837E-05 -1.748146E+02 -3.127549E+02 -1.802368E-05  1.650598E+02  3.119508E+02  0.000000E+00  0.000000E+00  0.000000E+00  6.285121E+02  9.820844E-07 -9.559029E+03
    1311  2.208656E+03  1.086560E+02 -2.880527E+04 -1.057946E-05 -1.756834E+02 -3.141100E+02 -1.742492E-05  1.639191E+02  3.087483E+02  0.000000E+00  0.000000E+00  0.000000E+00  6.259791E+02  8.927569E-07 -9.518429E+03
    1321  2.208060E+03  1.061855E+02 -2.877822E+04 -9.858785E-06 -1.773870E+02 -3.170896E+02 -1.657176E-05  1.628975E+02  3.058192E+02  0.000000E+00  0.000000E+00  0.000000E+00  6.236625E+02  1.507073E-06 -9.481866E+03
    1331  2.207895E+03  1.029850E+02 -2.876633E+04 -9.223419E-06 -1.799957E+02 -3.219048E+02 -1.550376E-05  1.620368E+02  3.033420E+02  0.000000E+00  0.000000E+00  0.000000E+00  6.215827E+02  2.947682E-06 -9.449815E+03
    1341  2.208339E+03  9.945126E+01 -2.877086E+04 -8.719825E-06 -1.831480E+02 -3.276731E+02 -1.428558E-05  1.613555E+02  3.014319E+02  0.000000E+00  0.000000E+00  0.000000E+00  6.197649E+02  5.273580E-06 -9.422750E+03
    1351  2.209543E+03  9.636616E+01 -2.879131E+04 -8.295886E-06 -1.861048E+02 -3.328038E+02 -1.296413E-05  1.608981E+02  3.002074E+02  0.000000E+00  0.000000E+00  0.000000E+00  6.182518E+02  8.298013E-06 -9.401380E+03