 variables=iter,cl,cd,cm,clim,cdim,cmim,clip,cdip,cmip,cljm,cdjm,cmjm,cljp,cdjp,cmjp
 zone t="coefhist",f=point
       1  1.983325E+03  2.668543E+01 -2.970020E+04  0.000000E+00  0.000000E+00  0.000000E+00  1.291935E-09  1.888316E+02  3.399425E+02  0.000000E+00  0.000000E+00  0.000000E+00  6.613382E+02  3.845855E-04 -3.307866E+03
      11  1.983302E+03  1.399092E+02 -2.948189E+04  0.000000E+00  0.000000E+00  0.000000E+00 -4.586106E-07  2.208029E+02  3.987273E+02  0.000000E+00  0.000000E+00  0.000000E+00  6.641921E+02  3.780615E-04 -3.336032E+03
      21  1.982926E+03  1.414190E+02 -2.946124E+04  0.000000E+00  0.000000E+00  0.000000E+00 -1.618203E-06  2.215299E+02  4.015248E+02  0.000000E+00  0.000000E+00  0.000000E+00  6.671687E+02  3.714972E-04 -3.364892E+03
      31  1.982378E+03  1.371036E+02 -2.944738E+04  0.000000E+00  0.000000E+00  0.000000E+00 -2.973060E-06  2.202655E+02  4.004378E+02  0.000000E+00  0.000000E+00  0.000000E+00  6.701480E+02  3.651678E-04 -3.393201E+03
      41  1.981815E+03  1.330367E+02 -2.942999E+04  0.000000E+00  0.000000E+00  0.000000E+00 -4.331481E-06  2.191592E+02  3.994864E+02  0.000000E+00  0.000000E+00  0.000000E+00  6.731272E+02  3.588365E-04 -3.420931E+03
      51  1.981492E+03  1.288362E+02 -2.941378E+04  0.000000E+00  0.000000E+00  0.000000E+00 -5.588054E-06  2.180478E+02  3.980582E+02  0.000000E+00  0.000000E+00  0.000000E+00  6.761108E+02  3.525443E-04 -3.448120E+03
      61  1.980868E+03  1.250458E+02 -2.939307E+04  0.000000E+00  0.000000E+00  0.000000E+00 -6.762228E-06  2.171482E+02  3.967607E+02  0.000000E+00  0.000000E+00  0.000000E+00  6.790938E+02  3.462800E-04 -3.474718E+03
      71  1.980201E+03  1.213586E+02 -2.937247E+04  0.000000E+00  0.000000E+00  0.000000E+00 -7.936456E-06  2.162042E+02  3.952276E+02  0.000000E+00  0.000000E+00  0.000000E+00  6.820790E+02  3.400288E-04 -3.500751E+03
      81  1.979825E+03  1.180612E+02 -2.935405E+04  0.000000E+00  0.000000E+00  0.000000E+00 -9.140571E-06  2.152940E+02  3.936782E+02  0.000000E+00  0.000000E+00  0.000000E+00  6.850650E+02  3.337934E-04 -3.526204E+03
      91  1.979248E+03  1.149275E+02 -2.932761E+04  0.000000E+00  0.000000E+00  0.000000E+00 -1.035227E-05  2.143736E+02  3.919773E+02  0.000000E+00  0.000000E+00  0.000000E+00  6.880523E+02  3.275681E-04 -3.551080E+03
     101  1.978375E+03  1.119677E+02 -2.929314E+04  0.000000E+00  0.000000E+00  0.000000E+00 -1.154045E-05  2.135123E+02  3.902272E+02  0.000000E+00  0.000000E+00  0.000000E+00  6.910333E+02  3.213541E-04 -3.575307E+03
     111  1.977658E+03  1.091524E+02 -2.926177E+04  0.000000E+00  0.000000E+00  0.000000E+00 -1.269261E-05  2.126884E+02  3.883902E+02  0.000000E+00  0.000000E+00  0.000000E+00  6.939524E+02  3.151657E-04 -3.598352E+03
     121  1.977640E+03  1.065039E+02 -2.924334E+04  0.000000E+00  0.000000E+00  0.000000E+00 -1.378949E-05  2.119074E+02  3.865115E+02  0.000000E+00  0.000000E+00  0.000000E+00  6.965954E+02  3.090788E-04 -3.618192E+03
     131  1.978420E+03  1.039806E+02 -2.923828E+04  0.000000E+00  0.000000E+00  0.000000E+00 -1.476101E-05  2.111688E+02  3.846138E+02  0.000000E+00  0.000000E+00  0.000000E+00  6.985749E+02  3.032866E-04 -3.631240E+03
     141  1.979442E+03  1.015401E+02 -2.923672E+04  0.000000E+00  0.000000E+00  0.000000E+00 -1.550710E-05  2.104772E+02  3.827492E+02  0.000000E+00  0.000000E+00  0.000000E+00  6.996797E+02  2.980314E-04 -3.635733E+03
     151  1.980086E+03  9.916832E+01 -2.923091E+04  0.000000E+00  0.000000E+00  0.000000E+00 -1.598319E-05  2.098122E+02  3.809455E+02  0.000000E+00  0.000000E+00  0.000000E+00  7.001514E+02  2.934112E-04 -3.634242E+03
     161  1.979976E+03  9.691221E+01 -2.921517E+04  0.000000E+00  0.000000E+00  0.000000E+00 -1.623423E-05  2.091771E+02  3.792818E+02  0.000000E+00  0.000000E+00  0.000000E+00  7.004473E+02  2.893177E-04 -3.631232E+03
     171  1.979066E+03  9.478045E+01 -2.918490E+04  0.000000E+00  0.000000E+00  0.000000E+00 -1.634767E-05  2.085570E+02  3.777668E+02  0.000000E+00  0.000000E+00  0.000000E+00  7.009739E+02  2.855419E-04 -3.630495E+03
     181  1.977894E+03  9.276843E+01 -2.914415E+04  0.000000E+00  0.000000E+00  0.000000E+00 -1.641112E-05  2.079511E+02  3.764056E+02  0.000000E+00  0.000000E+00  0.000000E+00  7.020368E+02  2.818623E-04 -3.634725E+03
     191  1.977231E+03  9.084883E+01 -2.910512E+04  0.000000E+00  0.000000E+00  0.000000E+00 -1.648956E-05  2.073658E+02  3.751962E+02  0.000000E+00  0.000000E+00  0.000000E+00  7.036744E+02  2.781004E-04 -3.644013E+03
     201  1.977356E+03  8.903162E+01 -2.907709E+04  0.000000E+00  0.000000E+00  0.000000E+00 -1.658565E-05  2.068107E+02  3.741373E+02  0.000000E+00  0.000000E+00  0.000000E+00  7.055384E+02  2.742329E-04 -3.654867E+03
     211  1.977985E+03  8.733232E+01 -2.905839E+04  0.000000E+00  0.000000E+00  0.000000E+00 -1.665477E-05  2.062896E+02  3.732259E+02  0.000000E+00  0.000000E+00  0.000000E+00  7.072913E+02  2.703699E-04 -3.664101E+03
     221  1.978599E+03  8.575812E+01 -2.903895E+04  0.000000E+00  0.000000E+00  0.000000E+00 -1.666762E-05  2.058014E+02  3.724565E+02  0.000000E+00  0.000000E+00  0.000000E+00  7.089071E+02  2.665975E-04 -3.671588E+03
     231  1.978866E+03  8.436686E+01 -2.901083E+04  0.000000E+00  0.000000E+00  0.000000E+00 -1.663333E-05  2.053485E+02  3.718300E+02  0.000000E+00  0.000000E+00  0.000000E+00  7.105234E+02  2.629075E-04 -3.678703E+03
     241  1.978894E+03  8.326886E+01 -2.897516E+04  0.000000E+00  0.000000E+00  0.000000E+00 -1.658101E-05  2.049439E+02  3.713498E+02  0.000000E+00  0.000000E+00  0.000000E+00  7.122315E+02  2.592519E-04 -3.686297E+03
     251  1.978972E+03  8.258276E+01 -2.893706E+04  0.000000E+00  0.000000E+00  0.000000E+00 -1.654048E-05  2.046135E+02  3.710182E+02  0.000000E+00  0.000000E+00  0.000000E+00  7.140292E+02  2.556004E-04 -3.694312E+03
     261  1.979229E+03  8.235698E+01 -2.889923E+04  0.000000E+00  0.000000E+00  0.000000E+00 -1.653410E-05  2.043880E+02  3.708339E+02  0.000000E+00  0.000000E+00  0.000000E+00  7.158802E+02  2.519488E-04 -3.702375E+03
     271  1.979606E+03  8.255072E+01 -2.886088E+04  0.000000E+00  0.000000E+00  0.000000E+00 -1.657326E-05  2.042855E+02  3.707844E+02  0.000000E+00  0.000000E+00  0.000000E+00  7.177669E+02  2.482994E-04 -3.710317E+03
     281  1.979960E+03  8.305594E+01 -2.881955E+04  0.000000E+00  0.000000E+00  0.000000E+00 -1.665599E-05  2.042947E+02  3.708427E+02  0.000000E+00  0.000000E+00  0.000000E+00  7.196856E+02  2.446485E-04 -3.718111E+03
     291  1.980246E+03  8.382391E+01 -2.877446E+04  0.000000E+00  0.000000E+00  0.000000E+00 -1.676958E-05  2.043738E+02  3.709715E+02  0.000000E+00  0.000000E+00  0.000000E+00  7.216259E+02  2.409919E-04 -3.725664E+03
     301  1.980446E+03  8.476825E+01 -2.872548E+04  0.000000E+00  0.000000E+00  0.000000E+00 -1.689860E-05  2.044646E+02  3.711302E+02  0.000000E+00  0.000000E+00  0.000000E+00  7.235789E+02  2.373313E-04 -3.732898E+03
     311  1.980535E+03  8.572934E+01 -2.867228E+04  0.000000E+00  0.000000E+00  0.000000E+00 -1.703218E-05  2.045178E+02  3.712847E+02  0.000000E+00  0.000000E+00  0.000000E+00  7.255601E+02  2.336684E-04 -3.739954E+03
     321  1.980549E+03  8.654037E+01 -2.861548E+04  0.000000E+00  0.000000E+00  0.000000E+00 -1.716785E-05  2.045144E+02  3.714154E+02  0.000000E+00  0.000000E+00  0.000000E+00  7.275991E+02  2.299964E-04 -3.747095E+03
     331  1.980591E+03  8.713936E+01 -2.855661E+04  0.000000E+00  0.000000E+00  0.000000E+00 -1.730865E-05  2.044718E+02  3.715178E+02  0.000000E+00  0.000000E+00  0.000000E+00  7.297104E+02  2.263018E-04 -3.754433E+03
     341  1.980744E+03  8.758204E+01 -2.849692E+04  0.000000E+00  0.000000E+00  0.000000E+00 -1.745337E-05  2.044250E+02  3.715935E+02  0.000000E+00  0.000000E+00  0.000000E+00  7.318842E+02  2.225748E-04 -3.761859E+03
     351  1.981005E+03  8.785854E+01 -2.843664E+04  0.000000E+00  0.000000E+00  0.000000E+00 -1.759040E-05  2.044074E+02  3.716475E+02  0.000000E+00  0.000000E+00  0.000000E+00  7.341039E+02  2.188124E-04 -3.769207E+03
     361  1.981319E+03  8.782970E+01 -2.837590E+04  0.000000E+00  0.000000E+00  0.000000E+00 -1.770214E-05  2.044393E+02  3.716852E+02  0.000000E+00  0.000000E+00  0.000000E+00  7.363622E+02  2.150148E-04 -3.776401E+03
     371  1.981657E+03  8.725428E+01 -2.831589E+04  0.000000E+00  0.000000E+00  0.000000E+00 -1.777631E-05  2.045252E+02  3.717102E+02  0.000000E+00  0.000000E+00  0.000000E+00  7.386534E+02  2.111819E-04 -3.783386E+03
     381  1.982051E+03  8.580569E+01 -2.825920E+04  0.000000E+00  0.000000E+00  0.000000E+00 -1.781558E-05  2.046531E+02  3.717204E+02  0.000000E+00  0.000000E+00  0.000000E+00  7.409608E+02  2.073125E-04 -3.790018E+03
     391  1.982530E+03  8.307657E+01 -2.820859E+04  0.000000E+00  0.000000E+00  0.000000E+00 -1.782471E-05  2.048089E+02  3.717129E+02  0.000000E+00  0.000000E+00  0.000000E+00  7.432423E+02  2.034080E-04 -3.795935E+03
     401  1.983058E+03  7.892130E+01 -2.816535E+04  0.000000E+00  0.000000E+00  0.000000E+00 -1.780391E-05  2.049866E+02  3.716891E+02  0.000000E+00  0.000000E+00  0.000000E+00  7.454150E+02  1.994783E-04 -3.800434E+03
     411  1.983614E+03  7.333578E+01 -2.813108E+04  0.000000E+00  0.000000E+00  0.000000E+00 -1.774893E-05  2.051849E+02  3.716566E+02  0.000000E+00  0.000000E+00  0.000000E+00  7.473556E+02  1.955494E-04 -3.802497E+03
     421  1.984341E+03  6.657527E+01 -2.810954E+04  0.000000E+00  0.000000E+00  0.000000E+00 -1.764857E-05  2.053963E+02  3.716229E+02  0.000000E+00  0.000000E+00  0.000000E+00  7.489407E+02  1.916669E-04 -3.801147E+03
     431  1.985552E+03  5.897486E+01 -2.810592E+04  0.000000E+00  0.000000E+00  0.000000E+00 -1.749014E-05  2.056077E+02  3.715972E+02  0.000000E+00  0.000000E+00  0.000000E+00  7.501122E+02  1.878888E-04 -3.796029E+03
     441  1.987524E+03  4.985602E+01 -2.812508E+04  0.000000E+00  0.000000E+00  0.000000E+00 -1.726696E-05  2.058061E+02  3.715932E+02  0.000000E+00  0.000000E+00  0.000000E+00  7.509244E+02  1.842661E-04 -3.787774E+03
     451  1.990223E+03  3.695065E+01 -2.816820E+04  0.000000E+00  0.000000E+00  0.000000E+00 -1.697983E-05  2.059821E+02  3.716267E+02  0.000000E+00  0.000000E+00  0.000000E+00  7.515392E+02  1.808209E-04 -3.777926E+03
     461  1.993316E+03  1.972554E+01 -2.822661E+04  0.000000E+00  0.000000E+00  0.000000E+00 -1.663990E-05  2.061325E+02  3.717105E+02  0.000000E+00  0.000000E+00  0.000000E+00  7.521878E+02  1.775343E-04 -3.768553E+03
     471  1.996553E+03  4.341007E+00 -2.828011E+04  0.000000E+00  0.000000E+00  0.000000E+00 -1.626939E-05  2.062603E+02  3.718538E+02  0.000000E+00  0.000000E+00  0.000000E+00  7.530912E+02  1.743592E-04 -3.761528E+03
     481  1.999863E+03 -4.669294E+00 -2.831894E+04  0.000000E+00  0.000000E+00  0.000000E+00 -1.589868E-05  2.063736E+02  3.720624E+02  0.000000E+00  0.000000E+00  0.000000E+00  7.543785E+02  1.712718E-04 -3.757837E+03
     491  2.003271E+03 -7.035254E+00 -2.834469E+04  0.000000E+00  0.000000E+00  0.000000E+00 -1.555518E-05  2.064867E+02  3.723382E+02  0.000000E+00  0.000000E+00  0.000000E+00  7.560345E+02  1.684281E-04 -3.757182E+03
     501  2.006863E+03 -4.929441E+00 -2.836527E+04  0.000000E+00  0.000000E+00  0.000000E+00 -1.524301E-05  2.066256E+02  3.726835E+02  0.000000E+00  0.000000E+00  0.000000E+00  7.579383E+02  1.666153E-04 -3.758420E+03
     511  2.011010E+03 -1.154127E+00 -2.839133E+04  0.000000E+00  0.000000E+00  0.000000E+00 -1.493100E-05  2.068297E+02  3.731086E+02  0.000000E+00  0.000000E+00  0.000000E+00  7.600281E+02  1.680101E-04 -3.760648E+03
     521  2.016332E+03  2.312690E+00 -2.843061E+04  0.000000E+00  0.000000E+00  0.000000E+00 -1.456884E-05  2.071325E+02  3.736264E+02  0.000000E+00  0.000000E+00  0.000000E+00  7.625707E+02  1.735083E-04 -3.763849E+03
     531  2.022658E+03  4.903159E+00 -2.848168E+04  0.000000E+00  0.000000E+00  0.000000E+00 -1.412859E-05  2.075681E+02  3.742546E+02  0.000000E+00  0.000000E+00  0.000000E+00  7.656065E+02  1.811253E-04 -3.768467E+03
     541  2.029226E+03  7.151109E+00 -2.853703E+04  0.000000E+00  0.000000E+00  0.000000E+00 -1.356687E-05  2.082016E+02  3.750293E+02  0.000000E+00  0.000000E+00  0.000000E+00  7.689286E+02  1.891872E-04 -3.774799E+03
     551  2.035236E+03  9.961873E+00 -2.858784E+04  0.000000E+00  0.000000E+00  0.000000E+00 -1.279949E-05  2.091174E+02  3.760103E+02  0.000000E+00  0.000000E+00  0.000000E+00  7.723823E+02  1.969569E-04 -3.782709E+03
     561  2.040364E+03  1.383953E+01 -2.862888E+04  0.000000E+00  0.000000E+00  0.000000E+00 -1.183411E-05  2.102724E+02  3.772071E+02  0.000000E+00  0.000000E+00  0.000000E+00  7.758608E+02  2.042717E-04 -3.791710E+03
     571  2.044693E+03  1.874189E+01 -2.865817E+04  0.000000E+00  0.000000E+00  0.000000E+00 -1.078074E-05  2.115352E+02  3.785855E+02  0.000000E+00  0.000000E+00  0.000000E+00  7.792746E+02  2.111843E-04 -3.801205E+03
     581  2.048333E+03  2.418352E+01 -2.867363E+04  0.000000E+00  0.000000E+00  0.000000E+00 -9.830459E-06  2.126897E+02  3.800453E+02  0.000000E+00  0.000000E+00  0.000000E+00  7.825850E+02  2.178260E-04 -3.810821E+03
     591  2.051355E+03  2.965739E+01 -2.867380E+04  0.000000E+00  0.000000E+00  0.000000E+00 -9.066305E-06  2.136050E+02  3.814936E+02  0.000000E+00  0.000000E+00  0.000000E+00  7.857977E+02  2.243214E-04 -3.820527E+03
     601  2.053711E+03  3.473548E+01 -2.865705E+04  0.000000E+00  0.000000E+00  0.000000E+00 -8.506603E-06  2.142371E+02  3.828616E+02  0.000000E+00  0.000000E+00  0.000000E+00  7.889514E+02  2.307504E-04 -3.830572E+03
     611  2.055214E+03  3.916633E+01 -2.862141E+04  0.000000E+00  0.000000E+00  0.000000E+00 -8.129221E-06  2.146122E+02  3.841130E+02  0.000000E+00  0.000000E+00  0.000000E+00  7.920882E+02  2.371225E-04 -3.841299E+03
     621  2.055662E+03  4.283028E+01 -2.856640E+04  0.000000E+00  0.000000E+00  0.000000E+00 -7.883666E-06  2.147966E+02  3.852424E+02  0.000000E+00  0.000000E+00  0.000000E+00  7.952400E+02  2.433974E-04 -3.853007E+03
     631  2.055116E+03  4.580458E+01 -2.849504E+04  0.000000E+00  0.000000E+00  0.000000E+00 -7.719474E-06  2.148704E+02  3.862665E+02  0.000000E+00  0.000000E+00  0.000000E+00  7.984299E+02  2.495041E-04 -3.865965E+03
     641  2.053903E+03  4.821431E+01 -2.841310E+04  0.000000E+00  0.000000E+00  0.000000E+00 -7.603505E-06  2.148975E+02  3.872042E+02  0.000000E+00  0.000000E+00  0.000000E+00  8.016935E+02  2.553587E-04 -3.880579E+03
     651  2.052455E+03  5.015033E+01 -2.832690E+04  0.000000E+00  0.000000E+00  0.000000E+00 -7.516849E-06  2.149285E+02  3.880700E+02  0.000000E+00  0.000000E+00  0.000000E+00  8.051085E+02  2.608600E-04 -3.897594E+03
     661  2.051181E+03  5.167987E+01 -2.824198E+04  0.000000E+00  0.000000E+00  0.000000E+00 -7.460593E-06  2.150002E+02  3.888666E+02  0.000000E+00  0.000000E+00  0.000000E+00  8.088229E+02  2.658953E-04 -3.918298E+03
     671  2.050388E+03  5.283422E+01 -2.816263E+04  0.000000E+00  0.000000E+00  0.000000E+00 -7.469713E-06  2.151309E+02  3.895829E+02  0.000000E+00  0.000000E+00  0.000000E+00  8.130553E+02  2.703354E-04 -3.944567E+03
     681  2.050316E+03  5.362000E+01 -2.809266E+04  0.000000E+00  0.000000E+00  0.000000E+00 -7.606547E-06  2.153191E+02  3.901930E+02  0.000000E+00  0.000000E+00  0.000000E+00  8.179750E+02  2.740471E-04 -3.977777E+03
     691  2.050990E+03  5.400924E+01 -2.803439E+04  0.000000E+00  0.000000E+00  0.000000E+00 -7.916958E-06  2.155546E+02  3.906668E+02  0.000000E+00  0.000000E+00  0.000000E+00  8.233750E+02  2.769905E-04 -4.015719E+03
     701  2.052059E+03  5.401689E+01 -2.798746E+04  0.000000E+00  0.000000E+00  0.000000E+00 -8.354542E-06  2.158166E+02  3.909812E+02  0.000000E+00  0.000000E+00  0.000000E+00  8.285045E+02  2.793844E-04 -4.051158E+03
     711  2.053122E+03  5.368430E+01 -2.795183E+04  0.000000E+00  0.000000E+00  0.000000E+00 -8.788667E-06  2.160843E+02  3.911317E+02  0.000000E+00  0.000000E+00  0.000000E+00  8.326492E+02  2.816497E-04 -4.077575E+03
     721  2.054139E+03  5.305161E+01 -2.793110E+04  0.000000E+00  0.000000E+00  0.000000E+00 -9.113629E-06  2.163329E+02  3.911353E+02  0.000000E+00  0.000000E+00  0.000000E+00  8.356069E+02  2.841392E-04 -4.093535E+03
     731  2.055437E+03  5.217568E+01 -2.793119E+04  0.000000E+00  0.000000E+00  0.000000E+00 -9.299654E-06  2.165363E+02  3.910244E+02  0.000000E+00  0.000000E+00  0.000000E+00  8.376336E+02  2.870100E-04 -4.101847E+03
     741  2.057254E+03  5.113521E+01 -2.795367E+04  0.000000E+00  0.000000E+00  0.000000E+00 -9.372098E-06  2.166725E+02  3.908279E+02  0.000000E+00  0.000000E+00  0.000000E+00  8.391416E+02  2.902602E-04 -4.106562E+03
     751  2.059634E+03  4.995584E+01 -2.799457E+04  0.000000E+00  0.000000E+00  0.000000E+00 -9.373046E-06  2.167313E+02  3.905718E+02  0.000000E+00  0.000000E+00  0.000000E+00  8.405135E+02  2.938142E-04 -4.111186E+03
     761  2.062466E+03  4.868545E+01 -2.804602E+04  0.000000E+00  0.000000E+00  0.000000E+00 -9.346604E-06  2.167060E+02  3.902727E+02  0.000000E+00  0.000000E+00  0.000000E+00  8.420339E+02  2.975864E-04 -4.118157E+03
     771  2.065594E+03  4.743694E+01 -2.810000E+04  0.000000E+00  0.000000E+00  0.000000E+00 -9.330522E-06  2.165915E+02  3.899372E+02  0.000000E+00  0.000000E+00  0.000000E+00  8.438893E+02  3.014940E-04 -4.128901E+03
     781  2.068971E+03  4.629536E+01 -2.815222E+04  0.000000E+00  0.000000E+00  0.000000E+00 -9.341231E-06  2.163915E+02  3.895679E+02  0.000000E+00  0.000000E+00  0.000000E+00  8.461907E+02  3.054556E-04 -4.144085E+03
     791  2.072630E+03  4.528884E+01 -2.820171E+04  0.000000E+00  0.000000E+00  0.000000E+00 -9.384194E-06  2.161067E+02  3.891685E+02  0.000000E+00  0.000000E+00  0.000000E+00  8.489747E+02  3.093866E-04 -4.163757E+03
     801  2.076656E+03  4.447004E+01 -2.824932E+04  0.000000E+00  0.000000E+00  0.000000E+00 -9.460305E-06  2.157302E+02  3.887360E+02  0.000000E+00  0.000000E+00  0.000000E+00  8.522403E+02  3.132258E-04 -4.187638E+03
     811  2.081004E+03  4.393768E+01 -2.829479E+04  0.000000E+00  0.000000E+00  0.000000E+00 -9.564061E-06  2.152584E+02  3.882641E+02  0.000000E+00  0.000000E+00  0.000000E+00  8.558960E+02  3.169579E-04 -4.214853E+03
     821  2.085488E+03  4.382031E+01 -2.833653E+04  0.000000E+00  0.000000E+00  0.000000E+00 -9.691380E-06  2.147249E+02  3.877719E+02  0.000000E+00  0.000000E+00  0.000000E+00  8.597945E+02  3.206195E-04 -4.244221E+03
     831  2.089883E+03  4.428719E+01 -2.837307E+04  0.000000E+00  0.000000E+00  0.000000E+00 -9.846205E-06  2.142005E+02  3.872943E+02  0.000000E+00  0.000000E+00  0.000000E+00  8.637501E+02  3.242655E-04 -4.274332E+03
     841  2.094096E+03  4.555933E+01 -2.840491E+04  0.000000E+00  0.000000E+00  0.000000E+00 -1.003305E-05  2.137625E+02  3.868621E+02  0.000000E+00  0.000000E+00  0.000000E+00  8.676264E+02  3.279375E-04 -4.304144E+03
     851  2.098112E+03  4.786927E+01 -2.843339E+04  0.000000E+00  0.000000E+00  0.000000E+00 -1.024998E-05  2.134641E+02  3.864972E+02  0.000000E+00  0.000000E+00  0.000000E+00  8.713379E+02  3.316449E-04 -4.332970E+03
     861  2.101924E+03  5.148681E+01 -2.845926E+04  0.000000E+00  0.000000E+00  0.000000E+00 -1.048840E-05  2.133190E+02  3.862166E+02  0.000000E+00  0.000000E+00  0.000000E+00  8.748335E+02  3.353829E-04 -4.360405E+03
     871  2.105523E+03  5.678679E+01 -2.848216E+04  0.000000E+00  0.000000E+00  0.000000E+00 -1.073637E-05  2.133273E+02  3.860584E+02  0.000000E+00  0.000000E+00  0.000000E+00  8.780972E+02  3.391420E-04 -4.386356E+03
     881  2.108878E+03  6.448360E+01 -2.849973E+04  0.000000E+00  0.000000E+00  0.000000E+00 -1.097487E-05  2.135553E+02  3.861817E+02  0.000000E+00  0.000000E+00  0.000000E+00  8.811343E+02  3.429169E-04 -4.410935E+03
     891  2.111941E+03  7.529541E+01 -2.850890E+04  0.000000E+00  0.000000E+00  0.000000E+00 -1.116615E-05  2.142570E+02  3.870427E+02  0.000000E+00  0.000000E+00  0.000000E+00  8.839538E+02  3.466798E-04 -4.434303E+03
     901  2.114671E+03  8.849253E+01 -2.850975E+04  0.000000E+00  0.000000E+00  0.000000E+00 -1.124726E-05  2.160489E+02  3.897086E+02  0.000000E+00  0.000000E+00  0.000000E+00  8.865918E+02  3.503588E-04 -4.456815E+03
     911  2.117006E+03  1.026417E+02 -2.850338E+04  0.000000E+00  0.000000E+00  0.000000E+00 -1.114814E-05  2.202834E+02  3.966259E+02  0.000000E+00  0.000000E+00  0.000000E+00  8.891128E+02  3.537443E-04 -4.479017E+03
     921  2.118774E+03  1.187484E+02 -2.848326E+04  0.000000E+00  0.000000E+00  0.000000E+00 -1.087396E-05  2.294584E+02  4.127464E+02  0.000000E+00  0.000000E+00  0.000000E+00  8.915840E+02  3.562855E-04 -4.501373E+03
     931  2.119774E+03  1.392446E+02 -2.843825E+04  0.000000E+00  0.000000E+00  0.000000E+00 -1.068882E-05  2.460046E+02  4.438917E+02  0.000000E+00  0.000000E+00  0.000000E+00  8.940982E+02  3.568495E-04 -4.524438E+03
     941  2.119941E+03  1.605733E+02 -2.837133E+04  0.000000E+00  0.000000E+00  0.000000E+00 -1.111132E-05  2.657878E+02  4.831877E+02  0.000000E+00  0.000000E+00  0.000000E+00  8.968014E+02  3.541405E-04 -4.549096E+03
     951  2.119443E+03  1.748463E+02 -2.830093E+04  0.000000E+00  0.000000E+00  0.000000E+00 -1.226683E-05  2.803308E+02  5.127366E+02  0.000000E+00  0.000000E+00  0.000000E+00  8.998755E+02  3.484358E-04 -4.576465E+03
     961  2.118646E+03  1.800780E+02 -2.823737E+04  0.000000E+00  0.000000E+00  0.000000E+00 -1.382241E-05  2.870653E+02  5.266694E+02  0.000000E+00  0.000000E+00  0.000000E+00  9.034062E+02  3.410450E-04 -4.606899E+03
     971  2.117847E+03  1.790143E+02 -2.818132E+04  0.000000E+00  0.000000E+00  0.000000E+00 -1.545119E-05  2.882574E+02  5.293649E+02  0.000000E+00  0.000000E+00  0.000000E+00  9.072729E+02  3.330722E-04 -4.639014E+03
     981  2.117100E+03  1.749949E+02 -2.812966E+04  0.000000E+00  0.000000E+00  0.000000E+00 -1.700159E-05  2.869090E+02  5.269315E+02  0.000000E+00  0.000000E+00  0.000000E+00  9.111798E+02  3.250193E-04 -4.669992E+03
     991  2.116217E+03  1.698203E+02 -2.808002E+04  0.000000E+00  0.000000E+00  0.000000E+00 -1.840516E-05  2.844937E+02  5.222516E+02  0.000000E+00  0.000000E+00  0.000000E+00  9.147331E+02  3.171353E-04 -4.696350E+03
    1001  2.115047E+03  1.644769E+02 -2.803189E+04  0.000000E+00  0.000000E+00  0.000000E+00 -1.961977E-05  2.818047E+02  5.169138E+02  0.000000E+00  0.000000E+00  0.000000E+00  9.176331E+02  3.095835E-04 -4.715673E+03
    1011  2.113734E+03  1.593229E+02 -2.798957E+04  0.000000E+00  0.000000E+00  0.000000E+00 -2.063584E-05  2.792392E+02  5.116658E+02  0.000000E+00  0.000000E+00  0.000000E+00  9.197827E+02  3.024612E-04 -4.727457E+03
    1021  2.112678E+03  1.543910E+02 -2.796095E+04  0.000000E+00  0.000000E+00  0.000000E+00 -2.146559E-05  2.770355E+02  5.069475E+02  0.000000E+00  0.000000E+00  0.000000E+00  9.212681E+02  2.958384E-04 -4.732818E+03
    1031  2.112361E+03  1.493551E+02 -2.795469E+04  0.000000E+00  0.000000E+00  0.000000E+00 -2.212610E-05  2.751423E+02  5.026540E+02  0.000000E+00  0.000000E+00  0.000000E+00  9.222638E+02  2.898115E-04 -4.733495E+03
    1041  2.113200E+03  1.439308E+02 -2.797736E+04  0.000000E+00  0.000000E+00  0.000000E+00 -2.263505E-05  2.734620E+02  4.986663E+02  0.000000E+00  0.000000E+00  0.000000E+00  9.229397E+02  2.845309E-04 -4.731074E+03
    1051  2.115468E+03  1.379890E+02 -2.803127E+04  0.000000E+00  0.000000E+00  0.000000E+00 -2.300293E-05  2.719261E+02  4.949276E+02  0.000000E+00  0.000000E+00  0.000000E+00  9.234373E+02  2.801992E-04 -4.726749E+03
    1061  2.119167E+03  1.317362E+02 -2.811208E+04  0.000000E+00  0.000000E+00  0.000000E+00 -2.323004E-05  2.704979E+02  4.914402E+02  0.000000E+00  0.000000E+00  0.000000E+00  9.238599E+02  2.770218E-04 -4.721295E+03
    1071  2.124054E+03  1.255384E+02 -2.821007E+04  0.000000E+00  0.000000E+00  0.000000E+00 -2.331330E-05  2.691405E+02  4.882042E+02  0.000000E+00  0.000000E+00  0.000000E+00  9.243061E+02  2.750965E-04 -4.715395E+03
    1081  2.129847E+03  1.196455E+02 -2.831603E+04  0.000000E+00  0.000000E+00  0.000000E+00 -2.325318E-05  2.678232E+02  4.852278E+02  0.000000E+00  0.000000E+00  0.000000E+00  9.248861E+02  2.742259E-04 -4.709934E+03
    1091  2.136356E+03  1.142377E+02 -2.842499E+04  0.000000E+00  0.000000E+00  0.000000E+00 -2.305974E-05  2.665230E+02  4.825158E+02  0.000000E+00  0.000000E+00  0.000000E+00  9.256930E+02  2.740457E-04 -4.705933E+03
    1101  2.143549E+03  1.093679E+02 -2.853702E+04  0.000000E+00  0.000000E+00  0.000000E+00 -2.275920E-05  2.652398E+02  4.800786E+02  0.000000E+00  0.000000E+00  0.000000E+00  9.268082E+02  2.741696E-04 -4.704461E+03
    1111  2.151472E+03  1.050957E+02 -2.865460E+04  0.000000E+00  0.000000E+00  0.000000E+00 -2.239434E-05  2.640022E+02  4.779302E+02  0.000000E+00  0.000000E+00  0.000000E+00  9.283102E+02  2.742916E-04 -4.706487E+03
    1121  2.160028E+03  1.014696E+02 -2.877777E+04  0.000000E+00  0.000000E+00  0.000000E+00 -2.201531E-05  2.628536E+02  4.760725E+02  0.000000E+00  0.000000E+00  0.000000E+00  9.302460E+02  2.741958E-04 -4.712642E+03
    1131  2.168913E+03  9.855071E+01 -2.890238E+04  0.000000E+00  0.000000E+00  0.000000E+00 -2.166607E-05  2.618433E+02  4.745063E+02  0.000000E+00  0.000000E+00  0.000000E+00  9.326027E+02  2.737344E-04 -4.722919E+03
    1141  2.177593E+03  9.640549E+01 -2.902027E+04  0.000000E+00  0.000000E+00  0.000000E+00 -2.137139E-05  2.610106E+02  4.732276E+02  0.000000E+00  0.000000E+00  0.000000E+00  9.352729E+02  2.728378E-04 -4.736355E+03
    1151  2.185565E+03  9.504430E+01 -2.912376E+04  0.000000E+00  0.000000E+00  0.000000E+00 -2.113285E-05  2.603649E+02  4.722156E+02  0.000000E+00  0.000000E+00  0.000000E+00  9.380737E+02  2.715438E-04 -4.751226E+03
    1161  2.192467E+03  9.450108E+01 -2.920714E+04  0.000000E+00  0.000000E+00  0.000000E+00 -2.093415E-05  2.598975E+02  4.714534E+02  0.000000E+00  0.000000E+00  0.000000E+00  9.408397E+02  2.699797E-04 -4.765878E+03
    1171  2.198184E+03  9.474136E+01 -2.926818E+04  0.000000E+00  0.000000E+00  0.000000E+00 -2.075111E-05  2.595943E+02  4.709303E+02  0.000000E+00  0.000000E+00  0.000000E+00  9.434622E+02  2.683158E-04 -4.779283E+03
    1181  2.202784E+03  9.577770E+01 -2.930716E+04  0.000000E+00  0.000000E+00  0.000000E+00 -2.056651E-05  2.594403E+02  4.706372E+02  0.000000E+00  0.000000E+00  0.000000E+00  9.459270E+02  2.667362E-04 -4.791111E+03
    1191  2.206405E+03  9.756872E+01 -2.932601E+04  0.000000E+00  0.000000E+00  0.000000E+00 -2.037077E-05  2.594250E+02  4.705665E+02  0.000000E+00  0.000000E+00  0.000000E+00  9.482703E+02  2.654084E-04 -4.801513E+03
    1201  2.209215E+03  9.992302E+01 -2.932744E+04  0.000000E+00  0.000000E+00  0.000000E+00 -2.016277E-05  2.595406E+02  4.707132E+02  0.000000E+00  0.000000E+00  0.000000E+00  9.505585E+02  2.645259E-04 -4.810942E+03
    1211  2.211303E+03  1.025812E+02 -2.931331E+04  0.000000E+00  0.000000E+00  0.000000E+00 -1.994704E-05  2.597779E+02  4.710644E+02  0.000000E+00  0.000000E+00  0.000000E+00  9.528852E+02  2.642368E-04 -4.820062E+03
    1221  2.212706E+03  1.052816E+02 -2.928494E+04  0.000000E+00  0.000000E+00  0.000000E+00 -1.972970E-05  2.601195E+02  4.715954E+02  0.000000E+00  0.000000E+00  0.000000E+00  9.553484E+02  2.645720E-04 -4.829613E+03
    1231  2.213463E+03  1.077511E+02 -2.924392E+04  0.000000E+00  0.000000E+00  0.000000E+00 -1.951844E-05  2.605412E+02  4.722741E+02  0.000000E+00  0.000000E+00  0.000000E+00  9.580354E+02  2.654019E-04 -4.840314E+03
    1241  2.213681E+03  1.097879E+02 -2.919291E+04  0.000000E+00  0.000000E+00  0.000000E+00 -1.932380E-05  2.610119E+02  4.730628E+02  0.000000E+00  0.000000E+00  0.000000E+00  9.609917E+02  2.664803E-04 -4.852696E+03
    1251  2.213481E+03  1.112728E+02 -2.913498E+04  0.000000E+00  0.000000E+00  0.000000E+00 -1.915763E-05  2.614964E+02  4.739177E+02  0.000000E+00  0.000000E+00  0.000000E+00  9.642113E+02  2.675112E-04 -4.866873E+03
    1261  2.212984E+03  1.121621E+02 -2.907328E+04  0.000000E+00  0.000000E+00  0.000000E+00 -1.903377E-05  2.619644E+02  4.747946E+02  0.000000E+00  0.000000E+00  0.000000E+00  9.676139E+02  2.682402E-04 -4.882303E+03
    1271  2.212275E+03  1.124619E+02 -2.901074E+04  0.000000E+00  0.000000E+00  0.000000E+00 -1.896373E-05  2.623984E+02  4.756554E+02  0.000000E+00  0.000000E+00  0.000000E+00  9.710423E+02  2.685227E-04 -4.897699E+03
    1281  2.211394E+03  1.122377E+02 -2.894989E+04  0.000000E+00  0.000000E+00  0.000000E+00 -1.895286E-05  2.627906E+02  4.764714E+02  0.000000E+00  0.000000E+00  0.000000E+00  9.742882E+02  2.682955E-04 -4.911354E+03
    1291  2.210441E+03  1.115486E+02 -2.889367E+04  0.000000E+00  0.000000E+00  0.000000E+00 -1.899808E-05  2.631388E+02  4.772209E+02  0.000000E+00  0.000000E+00  0.000000E+00  9.771759E+02  2.676076E-04 -4.921848E+03
    1301  2.209484E+03  1.103906E+02 -2.884451E+04  0.000000E+00  0.000000E+00  0.000000E+00 -1.908849E-05  2.634461E+02  4.778910E+02  0.000000E+00  0.000000E+00  0.000000E+00  9.796257E+02  2.665669E-04 -4.928608E+03
    1311  2.208656E+03  1.086560E+02 -2.880527E+04  0.000000E+00  0.000000E+00  0.000000E+00 -1.920499E-05  2.637237E+02  4.784767E+02  0.000000E+00  0.000000E+00  0.000000E+00  9.816643E+02  2.652822E-04 -4.932040E+03
    1321  2.208060E+03  1.061855E+02 -2.877822E+04  0.000000E+00  0.000000E+00  0.000000E+00 -1.932395E-05  2.639860E+02  4.789773E+02  0.000000E+00  0.000000E+00  0.000000E+00  9.833747E+02  2.638197E-04 -4.933121E+03
    1331  2.207895E+03  1.029850E+02 -2.876633E+04  0.000000E+00  0.000000E+00  0.000000E+00 -1.942254E-05  2.642464E+02  4.793937E+02  0.000000E+00  0.000000E+00  0.000000E+00  9.848581E+02  2.621789E-04 -4.933015E+03
    1341  2.208339E+03  9.945126E+01 -2.877086E+04  0.000000E+00  0.000000E+00  0.000000E+00 -1.948188E-05  2.645122E+02  4.797284E+02  0.000000E+00  0.000000E+00  0.000000E+00  9.862207E+02  2.603246E-04 -4.932775E+03
    1351  2.209543E+03  9.636616E+01 -2.879131E+04  0.000000E+00  0.000000E+00  0.000000E+00 -1.948755E-05  2.647857E+02  4.799903E+02  0.000000E+00  0.000000E+00  0.000000E+00  9.875775E+02  2.582502E-04 -4.933245E+03