 variables=iter,cl,cd,cm,clim,cdim,cmim,clip,cdip,cmip,cljm,cdjm,cmjm,cljp,cdjp,cmjp
 zone t="coefhist",f=point
       1  1.983325E+03  2.668543E+01 -2.970020E+04  0.000000E+00  0.000000E+00  0.000000E+00  0.000000E+00  0.000000E+00  0.000000E+00  0.000000E+00  0.000000E+00  0.000000E+00  3.305501E+01  1.999998E-05 -6.693640E+02
      11  1.983302E+03  1.399092E+02 -2.948189E+04  0.000000E+00  0.000000E+00  0.000000E+00  0.000000E+00  0.000000E+00  0.000000E+00  0.000000E+00  0.000000E+00  0.000000E+00  3.304182E+01  2.091134E-05 -6.690468E+02
      21  1.982926E+03  1.414190E+02 -2.946124E+04  0.000000E+00  0.000000E+00  0.000000E+00  0.000000E+00  0.000000E+00  0.000000E+00  0.000000E+00  0.000000E+00  0.000000E+00  3.286224E+01  2.240980E-05 -6.653645E+02
      31  1.982378E+03  1.371036E+02 -2.944738E+04  0.000000E+00  0.000000E+00  0.000000E+00  0.000000E+00  0.000000E+00  0.000000E+00  0.000000E+00  0.000000E+00  0.000000E+00  3.261970E+01  2.364722E-05 -6.604614E+02
      41  1.981815E+03  1.330367E+02 -2.942999E+04  0.000000E+00  0.000000E+00  0.000000E+00  0.000000E+00  0.000000E+00  0.000000E+00  0.000000E+00  0.000000E+00  0.000000E+00  3.227761E+01  2.427674E-05 -6.535617E+02
      51  1.981492E+03  1.288362E+02 -2.941378E+04  0.000000E+00  0.000000E+00  0.000000E+00  0.000000E+00  0.000000E+00  0.000000E+00  0.000000E+00  0.000000E+00  0.000000E+00  3.192190E+01  2.432560E-05 -6.463854E+02
      61  1.980868E+03  1.250458E+02 -2.939307E+04  0.000000E+00  0.000000E+00  0.000000E+00  0.000000E+00  0.000000E+00  0.000000E+00  0.000000E+00  0.000000E+00  0.000000E+00  3.167405E+01  2.405935E-05 -6.413814E+02
      71  1.980201E+03  1.213586E+02 -2.937247E+04  0.000000E+00  0.000000E+00  0.000000E+00  0.000000E+00  0.000000E+00  0.000000E+00  0.000000E+00  0.000000E+00  0.000000E+00  3.166553E+01  2.383915E-05 -6.411975E+02
      81  1.979825E+03  1.180612E+02 -2.935405E+04  0.000000E+00  0.000000E+00  0.000000E+00  0.000000E+00  0.000000E+00  0.000000E+00  0.000000E+00  0.000000E+00  0.000000E+00  3.181774E+01  2.389207E-05 -6.442614E+02
      91  1.979248E+03  1.149275E+02 -2.932761E+04  0.000000E+00  0.000000E+00  0.000000E+00  0.000000E+00  0.000000E+00  0.000000E+00  0.000000E+00  0.000000E+00  0.000000E+00  3.157677E+01  2.389555E-05 -6.393880E+02
     101  1.978375E+03  1.119677E+02 -2.929314E+04  0.000000E+00  0.000000E+00  0.000000E+00  0.000000E+00  0.000000E+00  0.000000E+00  0.000000E+00  0.000000E+00  0.000000E+00  3.097949E+01  2.358051E-05 -6.273152E+02
     111  1.977658E+03  1.091524E+02 -2.926177E+04  0.000000E+00  0.000000E+00  0.000000E+00  0.000000E+00  0.000000E+00  0.000000E+00  0.000000E+00  0.000000E+00  0.000000E+00  3.042611E+01  2.300087E-05 -6.161243E+02
     121  1.977640E+03  1.065039E+02 -2.924334E+04  0.000000E+00  0.000000E+00  0.000000E+00  0.000000E+00  0.000000E+00  0.000000E+00  0.000000E+00  0.000000E+00  0.000000E+00  2.998447E+01  2.225248E-05 -6.071901E+02
     131  1.978420E+03  1.039806E+02 -2.923828E+04  0.000000E+00  0.000000E+00  0.000000E+00  0.000000E+00  0.000000E+00  0.000000E+00  0.000000E+00  0.000000E+00  0.000000E+00  2.962434E+01  2.142432E-05 -5.999076E+02
     141  1.979442E+03  1.015401E+02 -2.923672E+04  0.000000E+00  0.000000E+00  0.000000E+00  0.000000E+00  0.000000E+00  0.000000E+00  0.000000E+00  0.000000E+00  0.000000E+00  2.932304E+01  2.053466E-05 -5.938178E+02
     151  1.980086E+03  9.916832E+01 -2.923091E+04  0.000000E+00  0.000000E+00  0.000000E+00  0.000000E+00  0.000000E+00  0.000000E+00  0.000000E+00  0.000000E+00  0.000000E+00  2.905776E+01  1.958739E-05 -5.884558E+02
     161  1.979976E+03  9.691221E+01 -2.921517E+04  0.000000E+00  0.000000E+00  0.000000E+00  0.000000E+00  0.000000E+00  0.000000E+00  0.000000E+00  0.000000E+00  0.000000E+00  2.875526E+01  1.862128E-05 -5.823339E+02
     171  1.979066E+03  9.478045E+01 -2.918490E+04  0.000000E+00  0.000000E+00  0.000000E+00  0.000000E+00  0.000000E+00  0.000000E+00  0.000000E+00  0.000000E+00  0.000000E+00  2.833309E+01  1.773301E-05 -5.737832E+02
     181  1.977894E+03  9.276843E+01 -2.914415E+04  0.000000E+00  0.000000E+00  0.000000E+00  0.000000E+00  0.000000E+00  0.000000E+00  0.000000E+00  0.000000E+00  0.000000E+00  2.782709E+01  1.697389E-05 -5.635370E+02
     191  1.977231E+03  9.084883E+01 -2.910512E+04  0.000000E+00  0.000000E+00  0.000000E+00  0.000000E+00  0.000000E+00  0.000000E+00  0.000000E+00  0.000000E+00  0.000000E+00  2.734587E+01  1.628434E-05 -5.538003E+02
     201  1.977356E+03  8.903162E+01 -2.907709E+04  0.000000E+00  0.000000E+00  0.000000E+00  0.000000E+00  0.000000E+00  0.000000E+00  0.000000E+00  0.000000E+00  0.000000E+00  2.694087E+01  1.559027E-05 -5.456117E+02
     211  1.977985E+03  8.733232E+01 -2.905839E+04  0.000000E+00  0.000000E+00  0.000000E+00  0.000000E+00  0.000000E+00  0.000000E+00  0.000000E+00  0.000000E+00  0.000000E+00  2.659804E+01  1.484226E-05 -5.386831E+02
     221  1.978599E+03  8.575812E+01 -2.903895E+04  0.000000E+00  0.000000E+00  0.000000E+00  0.000000E+00  0.000000E+00  0.000000E+00  0.000000E+00  0.000000E+00  0.000000E+00  2.628497E+01  1.401134E-05 -5.323556E+02
     231  1.978866E+03  8.436686E+01 -2.901083E+04  0.000000E+00  0.000000E+00  0.000000E+00  0.000000E+00  0.000000E+00  0.000000E+00  0.000000E+00  0.000000E+00  0.000000E+00  2.598938E+01  1.309130E-05 -5.263805E+02
     241  1.978894E+03  8.326886E+01 -2.897516E+04  0.000000E+00  0.000000E+00  0.000000E+00  0.000000E+00  0.000000E+00  0.000000E+00  0.000000E+00  0.000000E+00  0.000000E+00  2.571006E+01  1.207195E-05 -5.207332E+02
     251  1.978972E+03  8.258276E+01 -2.893706E+04  0.000000E+00  0.000000E+00  0.000000E+00  0.000000E+00  0.000000E+00  0.000000E+00  0.000000E+00  0.000000E+00  0.000000E+00  2.545117E+01  1.091963E-05 -5.155006E+02
     261  1.979229E+03  8.235698E+01 -2.889923E+04  0.000000E+00  0.000000E+00  0.000000E+00  0.000000E+00  0.000000E+00  0.000000E+00  0.000000E+00  0.000000E+00  0.000000E+00  2.523884E+01  9.545676E-06 -5.112163E+02
     271  1.979606E+03  8.255072E+01 -2.886088E+04  0.000000E+00  0.000000E+00  0.000000E+00  0.000000E+00  0.000000E+00  0.000000E+00  0.000000E+00  0.000000E+00  0.000000E+00  2.510667E+01  7.858956E-06 -5.085619E+02
     281  1.979960E+03  8.305594E+01 -2.881955E+04  0.000000E+00  0.000000E+00  0.000000E+00  0.000000E+00  0.000000E+00  0.000000E+00  0.000000E+00  0.000000E+00  0.000000E+00  2.505338E+01  5.841969E-06 -5.075051E+02
     291  1.980246E+03  8.382391E+01 -2.877446E+04  0.000000E+00  0.000000E+00  0.000000E+00  0.000000E+00  0.000000E+00  0.000000E+00  0.000000E+00  0.000000E+00  0.000000E+00  2.505845E+01  3.512572E-06 -5.076245E+02
     301  1.980446E+03  8.476825E+01 -2.872548E+04  0.000000E+00  0.000000E+00  0.000000E+00  0.000000E+00  0.000000E+00  0.000000E+00  0.000000E+00  0.000000E+00  0.000000E+00  2.507760E+01  9.835615E-07 -5.080176E+02
     311  1.980535E+03  8.572934E+01 -2.867228E+04  0.000000E+00  0.000000E+00  0.000000E+00  0.000000E+00  0.000000E+00  0.000000E+00  0.000000E+00  0.000000E+00  0.000000E+00  2.506967E+01 -1.541796E-06 -5.078494E+02
     321  1.980549E+03  8.654037E+01 -2.861548E+04  0.000000E+00  0.000000E+00  0.000000E+00  0.000000E+00  0.000000E+00  0.000000E+00  0.000000E+00  0.000000E+00  0.000000E+00  2.504779E+01 -3.873717E-06 -5.073906E+02
     331  1.980591E+03  8.713936E+01 -2.855661E+04  0.000000E+00  0.000000E+00  0.000000E+00  0.000000E+00  0.000000E+00  0.000000E+00  0.000000E+00  0.000000E+00  0.000000E+00  2.504330E+01 -5.925711E-06 -5.072825E+02
     341  1.980744E+03  8.758204E+01 -2.849692E+04  0.000000E+00  0.000000E+00  0.000000E+00  0.000000E+00  0.000000E+00  0.000000E+00  0.000000E+00  0.000000E+00  0.000000E+00  2.508571E+01 -7.707564E-06 -5.081249E+02
     351  1.981005E+03  8.785854E+01 -2.843664E+04  0.000000E+00  0.000000E+00  0.000000E+00  0.000000E+00  0.000000E+00  0.000000E+00  0.000000E+00  0.000000E+00  0.000000E+00  2.519078E+01 -9.270249E-06 -5.102378E+02
     361  1.981319E+03  8.782970E+01 -2.837590E+04  0.000000E+00  0.000000E+00  0.000000E+00  0.000000E+00  0.000000E+00  0.000000E+00  0.000000E+00  0.000000E+00  0.000000E+00  2.536310E+01 -1.066024E-05 -5.137132E+02
     371  1.981657E+03  8.725428E+01 -2.831589E+04  0.000000E+00  0.000000E+00  0.000000E+00  0.000000E+00  0.000000E+00  0.000000E+00  0.000000E+00  0.000000E+00  0.000000E+00  2.560631E+01 -1.189821E-05 -5.186226E+02
     381  1.982051E+03  8.580569E+01 -2.825920E+04  0.000000E+00  0.000000E+00  0.000000E+00  0.000000E+00  0.000000E+00  0.000000E+00  0.000000E+00  0.000000E+00  0.000000E+00  2.590122E+01 -1.295878E-05 -5.245747E+02
     391  1.982530E+03  8.307657E+01 -2.820859E+04  0.000000E+00  0.000000E+00  0.000000E+00  0.000000E+00  0.000000E+00  0.000000E+00  0.000000E+00  0.000000E+00  0.000000E+00  2.619190E+01 -1.375672E-05 -5.304354E+02
     401  1.983058E+03  7.892130E+01 -2.816535E+04  0.000000E+00  0.000000E+00  0.000000E+00  0.000000E+00  0.000000E+00  0.000000E+00  0.000000E+00  0.000000E+00  0.000000E+00  2.639209E+01 -1.424013E-05 -5.344618E+02
     411  1.983614E+03  7.333578E+01 -2.813108E+04  0.000000E+00  0.000000E+00  0.000000E+00  0.000000E+00  0.000000E+00  0.000000E+00  0.000000E+00  0.000000E+00  0.000000E+00  2.642485E+01 -1.441463E-05 -5.351021E+02
     421  1.984341E+03  6.657527E+01 -2.810954E+04  0.000000E+00  0.000000E+00  0.000000E+00  0.000000E+00  0.000000E+00  0.000000E+00  0.000000E+00  0.000000E+00  0.000000E+00  2.627376E+01 -1.430841E-05 -5.320267E+02
     431  1.985552E+03  5.897486E+01 -2.810592E+04  0.000000E+00  0.000000E+00  0.000000E+00  0.000000E+00  0.000000E+00  0.000000E+00  0.000000E+00  0.000000E+00  0.000000E+00  2.599808E+01 -1.395863E-05 -5.264324E+02
     441  1.987524E+03  4.985602E+01 -2.812508E+04  0.000000E+00  0.000000E+00  0.000000E+00  0.000000E+00  0.000000E+00  0.000000E+00  0.000000E+00  0.000000E+00  0.000000E+00  2.569896E+01 -1.339171E-05 -5.203640E+02
     451  1.990223E+03  3.695065E+01 -2.816820E+04  0.000000E+00  0.000000E+00  0.000000E+00  0.000000E+00  0.000000E+00  0.000000E+00  0.000000E+00  0.000000E+00  0.000000E+00  2.546269E+01 -1.252998E-05 -5.155655E+02
     461  1.993316E+03  1.972554E+01 -2.822661E+04  0.000000E+00  0.000000E+00  0.000000E+00  0.000000E+00  0.000000E+00  0.000000E+00  0.000000E+00  0.000000E+00  0.000000E+00  2.531962E+01 -1.130635E-05 -5.126539E+02
     471  1.996553E+03  4.341007E+00 -2.828011E+04  0.000000E+00  0.000000E+00  0.000000E+00  0.000000E+00  0.000000E+00  0.000000E+00  0.000000E+00  0.000000E+00  0.000000E+00  2.525404E+01 -9.744625E-06 -5.113161E+02
     481  1.999863E+03 -4.669294E+00 -2.831894E+04  0.000000E+00  0.000000E+00  0.000000E+00  0.000000E+00  0.000000E+00  0.000000E+00  0.000000E+00  0.000000E+00  0.000000E+00  2.520544E+01 -7.915849E-06 -5.103269E+02
     491  2.003271E+03 -7.035254E+00 -2.834469E+04  0.000000E+00  0.000000E+00  0.000000E+00  0.000000E+00  0.000000E+00  0.000000E+00  0.000000E+00  0.000000E+00  0.000000E+00  2.511504E+01 -5.910625E-06 -5.084918E+02
     501  2.006863E+03 -4.929441E+00 -2.836527E+04  0.000000E+00  0.000000E+00  0.000000E+00  0.000000E+00  0.000000E+00  0.000000E+00  0.000000E+00  0.000000E+00  0.000000E+00  2.503082E+01 -3.874207E-06 -5.067856E+02
     511  2.011010E+03 -1.154127E+00 -2.839133E+04  0.000000E+00  0.000000E+00  0.000000E+00  0.000000E+00  0.000000E+00  0.000000E+00  0.000000E+00  0.000000E+00  0.000000E+00  2.500994E+01 -1.889771E-06 -5.063630E+02
     521  2.016332E+03  2.312690E+00 -2.843061E+04  0.000000E+00  0.000000E+00  0.000000E+00  0.000000E+00  0.000000E+00  0.000000E+00  0.000000E+00  0.000000E+00  0.000000E+00  2.514183E+01  1.760719E-08 -5.090373E+02
     531  2.022658E+03  4.903159E+00 -2.848168E+04  0.000000E+00  0.000000E+00  0.000000E+00  0.000000E+00  0.000000E+00  0.000000E+00  0.000000E+00  0.000000E+00  0.000000E+00  2.548024E+01  1.811279E-06 -5.158943E+02
     541  2.029226E+03  7.151109E+00 -2.853703E+04  0.000000E+00  0.000000E+00  0.000000E+00  0.000000E+00  0.000000E+00  0.000000E+00  0.000000E+00  0.000000E+00  0.000000E+00  2.599094E+01  3.455940E-06 -5.262422E+02
     551  2.035236E+03  9.961873E+00 -2.858784E+04  0.000000E+00  0.000000E+00  0.000000E+00  0.000000E+00  0.000000E+00  0.000000E+00  0.000000E+00  0.000000E+00  0.000000E+00  2.661550E+01  4.848724E-06 -5.389005E+02
     561  2.040364E+03  1.383953E+01 -2.862888E+04  0.000000E+00  0.000000E+00  0.000000E+00  0.000000E+00  0.000000E+00  0.000000E+00  0.000000E+00  0.000000E+00  0.000000E+00  2.726776E+01  5.929983E-06 -5.521244E+02
     571  2.044693E+03  1.874189E+01 -2.865817E+04  0.000000E+00  0.000000E+00  0.000000E+00  0.000000E+00  0.000000E+00  0.000000E+00  0.000000E+00  0.000000E+00  0.000000E+00  2.786843E+01  6.660766E-06 -5.643064E+02
     581  2.048333E+03  2.418352E+01 -2.867363E+04  0.000000E+00  0.000000E+00  0.000000E+00  0.000000E+00  0.000000E+00  0.000000E+00  0.000000E+00  0.000000E+00  0.000000E+00  2.835787E+01  6.994603E-06 -5.742359E+02
     591  2.051355E+03  2.965739E+01 -2.867380E+04  0.000000E+00  0.000000E+00  0.000000E+00  0.000000E+00  0.000000E+00  0.000000E+00  0.000000E+00  0.000000E+00  0.000000E+00  2.875888E+01  6.964032E-06 -5.823719E+02
     601  2.053711E+03  3.473548E+01 -2.865705E+04  0.000000E+00  0.000000E+00  0.000000E+00  0.000000E+00  0.000000E+00  0.000000E+00  0.000000E+00  0.000000E+00  0.000000E+00  2.910880E+01  6.660591E-06 -5.894680E+02
     611  2.055214E+03  3.916633E+01 -2.862141E+04  0.000000E+00  0.000000E+00  0.000000E+00  0.000000E+00  0.000000E+00  0.000000E+00  0.000000E+00  0.000000E+00  0.000000E+00  2.940880E+01  6.212990E-06 -5.955482E+02
     621  2.055662E+03  4.283028E+01 -2.856640E+04  0.000000E+00  0.000000E+00  0.000000E+00  0.000000E+00  0.000000E+00  0.000000E+00  0.000000E+00  0.000000E+00  0.000000E+00  2.966156E+01  5.697596E-06 -6.006704E+02
     631  2.055116E+03  4.580458E+01 -2.849504E+04  0.000000E+00  0.000000E+00  0.000000E+00  0.000000E+00  0.000000E+00  0.000000E+00  0.000000E+00  0.000000E+00  0.000000E+00  2.986141E+01  5.160621E-06 -6.047193E+02
     641  2.053903E+03  4.821431E+01 -2.841310E+04  0.000000E+00  0.000000E+00  0.000000E+00  0.000000E+00  0.000000E+00  0.000000E+00  0.000000E+00  0.000000E+00  0.000000E+00  2.999591E+01  4.663632E-06 -6.074413E+02
     651  2.052455E+03  5.015033E+01 -2.832690E+04  0.000000E+00  0.000000E+00  0.000000E+00  0.000000E+00  0.000000E+00  0.000000E+00  0.000000E+00  0.000000E+00  0.000000E+00  3.006823E+01  4.252818E-06 -6.089022E+02
     661  2.051181E+03  5.167987E+01 -2.824198E+04  0.000000E+00  0.000000E+00  0.000000E+00  0.000000E+00  0.000000E+00  0.000000E+00  0.000000E+00  0.000000E+00  0.000000E+00  3.009109E+01  3.958792E-06 -6.093608E+02
     671  2.050388E+03  5.283422E+01 -2.816263E+04  0.000000E+00  0.000000E+00  0.000000E+00  0.000000E+00  0.000000E+00  0.000000E+00  0.000000E+00  0.000000E+00  0.000000E+00  3.008592E+01  3.793345E-06 -6.092518E+02
     681  2.050316E+03  5.362000E+01 -2.809266E+04  0.000000E+00  0.000000E+00  0.000000E+00  0.000000E+00  0.000000E+00  0.000000E+00  0.000000E+00  0.000000E+00  0.000000E+00  3.007158E+01  3.761738E-06 -6.089571E+02
     691  2.050990E+03  5.400924E+01 -2.803439E+04  0.000000E+00  0.000000E+00  0.000000E+00  0.000000E+00  0.000000E+00  0.000000E+00  0.000000E+00  0.000000E+00  0.000000E+00  3.005583E+01  3.878231E-06 -6.086330E+02
     701  2.052059E+03  5.401689E+01 -2.798746E+04  0.000000E+00  0.000000E+00  0.000000E+00  0.000000E+00  0.000000E+00  0.000000E+00  0.000000E+00  0.000000E+00  0.000000E+00  3.004349E+01  4.152314E-06 -6.083777E+02
     711  2.053122E+03  5.368430E+01 -2.795183E+04  0.000000E+00  0.000000E+00  0.000000E+00  0.000000E+00  0.000000E+00  0.000000E+00  0.000000E+00  0.000000E+00  0.000000E+00  3.003044E+01  4.578561E-06 -6.081085E+02
     721  2.054139E+03  5.305161E+01 -2.793110E+04  0.000000E+00  0.000000E+00  0.000000E+00  0.000000E+00  0.000000E+00  0.000000E+00  0.000000E+00  0.000000E+00  0.000000E+00  3.001036E+01  5.136679E-06 -6.076981E+02
     731  2.055437E+03  5.217568E+01 -2.793119E+04  0.000000E+00  0.000000E+00  0.000000E+00  0.000000E+00  0.000000E+00  0.000000E+00  0.000000E+00  0.000000E+00  0.000000E+00  2.998620E+01  5.783105E-06 -6.072065E+02
     741  2.057254E+03  5.113521E+01 -2.795367E+04  0.000000E+00  0.000000E+00  0.000000E+00  0.000000E+00  0.000000E+00  0.000000E+00  0.000000E+00  0.000000E+00  0.000000E+00  2.997358E+01  6.465053E-06 -6.069509E+02
     751  2.059634E+03  4.995584E+01 -2.799457E+04  0.000000E+00  0.000000E+00  0.000000E+00  0.000000E+00  0.000000E+00  0.000000E+00  0.000000E+00  0.000000E+00  0.000000E+00  2.996690E+01  7.146293E-06 -6.068171E+02
     761  2.062466E+03  4.868545E+01 -2.804602E+04  0.000000E+00  0.000000E+00  0.000000E+00  0.000000E+00  0.000000E+00  0.000000E+00  0.000000E+00  0.000000E+00  0.000000E+00  2.993883E+01  7.798959E-06 -6.062508E+02
     771  2.065594E+03  4.743694E+01 -2.810000E+04  0.000000E+00  0.000000E+00  0.000000E+00  0.000000E+00  0.000000E+00  0.000000E+00  0.000000E+00  0.000000E+00  0.000000E+00  2.984936E+01  8.393402E-06 -6.044417E+02
     781  2.068971E+03  4.629536E+01 -2.815222E+04  0.000000E+00  0.000000E+00  0.000000E+00  0.000000E+00  0.000000E+00  0.000000E+00  0.000000E+00  0.000000E+00  0.000000E+00  2.967085E+01  8.908262E-06 -6.008302E+02
     791  2.072630E+03  4.528884E+01 -2.820171E+04  0.000000E+00  0.000000E+00  0.000000E+00  0.000000E+00  0.000000E+00  0.000000E+00  0.000000E+00  0.000000E+00  0.000000E+00  2.940496E+01  9.323313E-06 -5.954498E+02
     801  2.076656E+03  4.447004E+01 -2.824932E+04  0.000000E+00  0.000000E+00  0.000000E+00  0.000000E+00  0.000000E+00  0.000000E+00  0.000000E+00  0.000000E+00  0.000000E+00  2.908053E+01  9.622745E-06 -5.888855E+02
     811  2.081004E+03  4.393768E+01 -2.829479E+04  0.000000E+00  0.000000E+00  0.000000E+00  0.000000E+00  0.000000E+00  0.000000E+00  0.000000E+00  0.000000E+00  0.000000E+00  2.873142E+01  9.786572E-06 -5.818231E+02
     821  2.085488E+03  4.382031E+01 -2.833653E+04  0.000000E+00  0.000000E+00  0.000000E+00  0.000000E+00  0.000000E+00  0.000000E+00  0.000000E+00  0.000000E+00  0.000000E+00  2.838680E+01  9.804246E-06 -5.748522E+02
     831  2.089883E+03  4.428719E+01 -2.837307E+04  0.000000E+00  0.000000E+00  0.000000E+00  0.000000E+00  0.000000E+00  0.000000E+00  0.000000E+00  0.000000E+00  0.000000E+00  2.806314E+01  9.680725E-06 -5.683051E+02
     841  2.094096E+03  4.555933E+01 -2.840491E+04  0.000000E+00  0.000000E+00  0.000000E+00  0.000000E+00  0.000000E+00  0.000000E+00  0.000000E+00  0.000000E+00  0.000000E+00  2.777786E+01  9.433929E-06 -5.625346E+02
     851  2.098112E+03  4.786927E+01 -2.843339E+04  0.000000E+00  0.000000E+00  0.000000E+00  0.000000E+00  0.000000E+00  0.000000E+00  0.000000E+00  0.000000E+00  0.000000E+00  2.754508E+01  9.086391E-06 -5.578273E+02
     861  2.101924E+03  5.148681E+01 -2.845926E+04  0.000000E+00  0.000000E+00  0.000000E+00  0.000000E+00  0.000000E+00  0.000000E+00  0.000000E+00  0.000000E+00  0.000000E+00  2.738173E+01  8.654260E-06 -5.545258E+02
     871  2.105523E+03  5.678679E+01 -2.848216E+04  0.000000E+00  0.000000E+00  0.000000E+00  0.000000E+00  0.000000E+00  0.000000E+00  0.000000E+00  0.000000E+00  0.000000E+00  2.732090E+01  8.145281E-06 -5.533016E+02
     881  2.108878E+03  6.448360E+01 -2.849973E+04  0.000000E+00  0.000000E+00  0.000000E+00  0.000000E+00  0.000000E+00  0.000000E+00  0.000000E+00  0.000000E+00  0.000000E+00  2.738254E+01  7.593073E-06 -5.545561E+02
     891  2.111941E+03  7.529541E+01 -2.850890E+04  0.000000E+00  0.000000E+00  0.000000E+00  0.000000E+00  0.000000E+00  0.000000E+00  0.000000E+00  0.000000E+00  0.000000E+00  2.758302E+01  7.128564E-06 -5.586160E+02
     901  2.114671E+03  8.849253E+01 -2.850975E+04  0.000000E+00  0.000000E+00  0.000000E+00  0.000000E+00  0.000000E+00  0.000000E+00  0.000000E+00  0.000000E+00  0.000000E+00  2.794534E+01  6.954682E-06 -5.659459E+02
     911  2.117006E+03  1.026417E+02 -2.850338E+04  0.000000E+00  0.000000E+00  0.000000E+00  0.000000E+00  0.000000E+00  0.000000E+00  0.000000E+00  0.000000E+00  0.000000E+00  2.847376E+01  7.167425E-06 -5.766394E+02
     921  2.118774E+03  1.187484E+02 -2.848326E+04  0.000000E+00  0.000000E+00  0.000000E+00  0.000000E+00  0.000000E+00  0.000000E+00  0.000000E+00  0.000000E+00  0.000000E+00  2.906937E+01  7.575324E-06 -5.887063E+02
     931  2.119774E+03  1.392446E+02 -2.843825E+04  0.000000E+00  0.000000E+00  0.000000E+00  0.000000E+00  0.000000E+00  0.000000E+00  0.000000E+00  0.000000E+00  0.000000E+00  2.955284E+01  7.776296E-06 -5.985183E+02
     941  2.119941E+03  1.605733E+02 -2.837133E+04  0.000000E+00  0.000000E+00  0.000000E+00  0.000000E+00  0.000000E+00  0.000000E+00  0.000000E+00  0.000000E+00  0.000000E+00  2.978015E+01  7.482616E-06 -6.031440E+02
     951  2.119443E+03  1.748463E+02 -2.830093E+04  0.000000E+00  0.000000E+00  0.000000E+00  0.000000E+00  0.000000E+00  0.000000E+00  0.000000E+00  0.000000E+00  0.000000E+00  2.974465E+01  6.811338E-06 -6.024331E+02
     961  2.118646E+03  1.800780E+02 -2.823737E+04  0.000000E+00  0.000000E+00  0.000000E+00  0.000000E+00  0.000000E+00  0.000000E+00  0.000000E+00  0.000000E+00  0.000000E+00  2.956193E+01  6.038039E-06 -5.987279E+02
     971  2.117847E+03  1.790143E+02 -2.818132E+04  0.000000E+00  0.000000E+00  0.000000E+00  0.000000E+00  0.000000E+00  0.000000E+00  0.000000E+00  0.000000E+00  0.000000E+00  2.936223E+01  5.375876E-06 -5.946729E+02
     981  2.117100E+03  1.749949E+02 -2.812966E+04  0.000000E+00  0.000000E+00  0.000000E+00  0.000000E+00  0.000000E+00  0.000000E+00  0.000000E+00  0.000000E+00  0.000000E+00  2.920439E+01  4.911559E-06 -5.914650E+02
     991  2.116217E+03  1.698203E+02 -2.808002E+04  0.000000E+00  0.000000E+00  0.000000E+00  0.000000E+00  0.000000E+00  0.000000E+00  0.000000E+00  0.000000E+00  0.000000E+00  2.907311E+01  4.640739E-06 -5.887967E+02
    1001  2.115047E+03  1.644769E+02 -2.803189E+04  0.000000E+00  0.000000E+00  0.000000E+00  0.000000E+00  0.000000E+00  0.000000E+00  0.000000E+00  0.000000E+00  0.000000E+00  2.889094E+01  4.501813E-06 -5.851006E+02
    1011  2.113734E+03  1.593229E+02 -2.798957E+04  0.000000E+00  0.000000E+00  0.000000E+00  0.000000E+00  0.000000E+00  0.000000E+00  0.000000E+00  0.000000E+00  0.000000E+00  2.859977E+01  4.442175E-06 -5.791985E+02
    1021  2.112678E+03  1.543910E+02 -2.796095E+04  0.000000E+00  0.000000E+00  0.000000E+00  0.000000E+00  0.000000E+00  0.000000E+00  0.000000E+00  0.000000E+00  0.000000E+00  2.820983E+01  4.411044E-06 -5.712980E+02
    1031  2.112361E+03  1.493551E+02 -2.795469E+04  0.000000E+00  0.000000E+00  0.000000E+00  0.000000E+00  0.000000E+00  0.000000E+00  0.000000E+00  0.000000E+00  0.000000E+00  2.776716E+01  4.384046E-06 -5.623343E+02
    1041  2.113200E+03  1.439308E+02 -2.797736E+04  0.000000E+00  0.000000E+00  0.000000E+00  0.000000E+00  0.000000E+00  0.000000E+00  0.000000E+00  0.000000E+00  0.000000E+00  2.733742E+01  4.298494E-06 -5.536387E+02
    1051  2.115468E+03  1.379890E+02 -2.803127E+04  0.000000E+00  0.000000E+00  0.000000E+00  0.000000E+00  0.000000E+00  0.000000E+00  0.000000E+00  0.000000E+00  0.000000E+00  2.697504E+01  4.058319E-06 -5.463116E+02
    1061  2.119167E+03  1.317362E+02 -2.811208E+04  0.000000E+00  0.000000E+00  0.000000E+00  0.000000E+00  0.000000E+00  0.000000E+00  0.000000E+00  0.000000E+00  0.000000E+00  2.671101E+01  3.609186E-06 -5.409808E+02
    1071  2.124054E+03  1.255384E+02 -2.821007E+04  0.000000E+00  0.000000E+00  0.000000E+00  0.000000E+00  0.000000E+00  0.000000E+00  0.000000E+00  0.000000E+00  0.000000E+00  2.653036E+01  2.916163E-06 -5.373377E+02
    1081  2.129847E+03  1.196455E+02 -2.831603E+04  0.000000E+00  0.000000E+00  0.000000E+00  0.000000E+00  0.000000E+00  0.000000E+00  0.000000E+00  0.000000E+00  0.000000E+00  2.639878E+01  2.022779E-06 -5.346831E+02
    1091  2.136356E+03  1.142377E+02 -2.842499E+04  0.000000E+00  0.000000E+00  0.000000E+00  0.000000E+00  0.000000E+00  0.000000E+00  0.000000E+00  0.000000E+00  0.000000E+00  2.627710E+01  1.003495E-06 -5.322219E+02
    1101  2.143549E+03  1.093679E+02 -2.853702E+04  0.000000E+00  0.000000E+00  0.000000E+00  0.000000E+00  0.000000E+00  0.000000E+00  0.000000E+00  0.000000E+00  0.000000E+00  2.614240E+01 -3.282769E-08 -5.294917E+02
    1111  2.151472E+03  1.050957E+02 -2.865460E+04  0.000000E+00  0.000000E+00  0.000000E+00  0.000000E+00  0.000000E+00  0.000000E+00  0.000000E+00  0.000000E+00  0.000000E+00  2.599643E+01 -1.016410E-06 -5.265308E+02
    1121  2.160028E+03  1.014696E+02 -2.877777E+04  0.000000E+00  0.000000E+00  0.000000E+00  0.000000E+00  0.000000E+00  0.000000E+00  0.000000E+00  0.000000E+00  0.000000E+00  2.586092E+01 -1.915403E-06 -5.237815E+02
    1131  2.168913E+03  9.855071E+01 -2.890238E+04  0.000000E+00  0.000000E+00  0.000000E+00  0.000000E+00  0.000000E+00  0.000000E+00  0.000000E+00  0.000000E+00  0.000000E+00  2.576489E+01 -2.721107E-06 -5.218318E+02
    1141  2.177593E+03  9.640549E+01 -2.902027E+04  0.000000E+00  0.000000E+00  0.000000E+00  0.000000E+00  0.000000E+00  0.000000E+00  0.000000E+00  0.000000E+00  0.000000E+00  2.572426E+01 -3.458819E-06 -5.210037E+02
    1151  2.185565E+03  9.504430E+01 -2.912376E+04  0.000000E+00  0.000000E+00  0.000000E+00  0.000000E+00  0.000000E+00  0.000000E+00  0.000000E+00  0.000000E+00  0.000000E+00  2.574313E+01 -4.165672E-06 -5.213813E+02
    1161  2.192467E+03  9.450108E+01 -2.920714E+04  0.000000E+00  0.000000E+00  0.000000E+00  0.000000E+00  0.000000E+00  0.000000E+00  0.000000E+00  0.000000E+00  0.000000E+00  2.581206E+01 -4.856995E-06 -5.227722E+02
    1171  2.198184E+03  9.474136E+01 -2.926818E+04  0.000000E+00  0.000000E+00  0.000000E+00  0.000000E+00  0.000000E+00  0.000000E+00  0.000000E+00  0.000000E+00  0.000000E+00  2.591403E+01 -5.537115E-06 -5.248317E+02
    1181  2.202784E+03  9.577770E+01 -2.930716E+04  0.000000E+00  0.000000E+00  0.000000E+00  0.000000E+00  0.000000E+00  0.000000E+00  0.000000E+00  0.000000E+00  0.000000E+00  2.603655E+01 -6.195662E-06 -5.273072E+02
    1191  2.206405E+03  9.756872E+01 -2.932601E+04  0.000000E+00  0.000000E+00  0.000000E+00  0.000000E+00  0.000000E+00  0.000000E+00  0.000000E+00  0.000000E+00  0.000000E+00  2.617911E+01 -6.807502E-06 -5.301883E+02
    1201  2.209215E+03  9.992302E+01 -2.932744E+04  0.000000E+00  0.000000E+00  0.000000E+00  0.000000E+00  0.000000E+00  0.000000E+00  0.000000E+00  0.000000E+00  0.000000E+00  2.634419E+01 -7.356510E-06 -5.335258E+02
    1211  2.211303E+03  1.025812E+02 -2.931331E+04  0.000000E+00  0.000000E+00  0.000000E+00  0.000000E+00  0.000000E+00  0.000000E+00  0.000000E+00  0.000000E+00  0.000000E+00  2.653218E+01 -7.845292E-06 -5.373269E+02
    1221  2.212706E+03  1.052816E+02 -2.928494E+04  0.000000E+00  0.000000E+00  0.000000E+00  0.000000E+00  0.000000E+00  0.000000E+00  0.000000E+00  0.000000E+00  0.000000E+00  2.673860E+01 -8.254501E-06 -5.415002E+02
    1231  2.213463E+03  1.077511E+02 -2.924392E+04  0.000000E+00  0.000000E+00  0.000000E+00  0.000000E+00  0.000000E+00  0.000000E+00  0.000000E+00  0.000000E+00  0.000000E+00  2.695774E+01 -8.559419E-06 -5.459296E+02
    1241  2.213681E+03  1.097879E+02 -2.919291E+04  0.000000E+00  0.000000E+00  0.000000E+00  0.000000E+00  0.000000E+00  0.000000E+00  0.000000E+00  0.000000E+00  0.000000E+00  2.719645E+01 -8.755524E-06 -5.507557E+02
    1251  2.213481E+03  1.112728E+02 -2.913498E+04  0.000000E+00  0.000000E+00  0.000000E+00  0.000000E+00  0.000000E+00  0.000000E+00  0.000000E+00  0.000000E+00  0.000000E+00  2.746428E+01 -8.842849E-06 -5.561727E+02
    1261  2.212984E+03  1.121621E+02 -2.907328E+04  0.000000E+00  0.000000E+00  0.000000E+00  0.000000E+00  0.000000E+00  0.000000E+00  0.000000E+00  0.000000E+00  0.000000E+00  2.776126E+01 -8.800544E-06 -5.621792E+02
    1271  2.212275E+03  1.124619E+02 -2.901074E+04  0.000000E+00  0.000000E+00  0.000000E+00  0.000000E+00  0.000000E+00  0.000000E+00  0.000000E+00  0.000000E+00  0.000000E+00  2.808899E+01 -8.623415E-06 -5.688066E+02
    1281  2.211394E+03  1.122377E+02 -2.894989E+04  0.000000E+00  0.000000E+00  0.000000E+00  0.000000E+00  0.000000E+00  0.000000E+00  0.000000E+00  0.000000E+00  0.000000E+00  2.844355E+01 -8.248945E-06 -5.759742E+02
    1291  2.210441E+03  1.115486E+02 -2.889367E+04  0.000000E+00  0.000000E+00  0.000000E+00  0.000000E+00  0.000000E+00  0.000000E+00  0.000000E+00  0.000000E+00  0.000000E+00  2.879645E+01 -7.613865E-06 -5.831065E+02
    1301  2.209484E+03  1.103906E+02 -2.884451E+04  0.000000E+00  0.000000E+00  0.000000E+00  0.000000E+00  0.000000E+00  0.000000E+00  0.000000E+00  0.000000E+00  0.000000E+00  2.911048E+01 -6.703472E-06 -5.894529E+02
    1311  2.208656E+03  1.086560E+02 -2.880527E+04  0.000000E+00  0.000000E+00  0.000000E+00  0.000000E+00  0.000000E+00  0.000000E+00  0.000000E+00  0.000000E+00  0.000000E+00  2.934505E+01 -5.547584E-06 -5.941936E+02
    1321  2.208060E+03  1.061855E+02 -2.877822E+04  0.000000E+00  0.000000E+00  0.000000E+00  0.000000E+00  0.000000E+00  0.000000E+00  0.000000E+00  0.000000E+00  0.000000E+00  2.948030E+01 -4.211835E-06 -5.969270E+02
    1331  2.207895E+03  1.029850E+02 -2.876633E+04  0.000000E+00  0.000000E+00  0.000000E+00  0.000000E+00  0.000000E+00  0.000000E+00  0.000000E+00  0.000000E+00  0.000000E+00  2.952751E+01 -2.766149E-06 -5.978811E+02
    1341  2.208339E+03  9.945126E+01 -2.877086E+04  0.000000E+00  0.000000E+00  0.000000E+00  0.000000E+00  0.000000E+00  0.000000E+00  0.000000E+00  0.000000E+00  0.000000E+00  2.951151E+01 -1.283875E-06 -5.975572E+02
    1351  2.209543E+03  9.636616E+01 -2.879131E+04  0.000000E+00  0.000000E+00  0.000000E+00  0.000000E+00  0.000000E+00  0.000000E+00  0.000000E+00  0.000000E+00  0.000000E+00  2.945713E+01  1.810833E-07 -5.964591E+02