 variables = x,y,rho,p,mach,u,v,k,w,vis
 zone t ="100000",i=         101 ,j=         101 ,f=point
    2.0500000000000000E+01   0.0000000000000000E+00   3.7565598423653385E-01   8.9018425001907386E-01   1.5296964806213242E+00   2.7861773978996687E+00  -4.3292355957898060E-19   2.1903040726982854E-03   2.1735713973654307E+00   8.5793761773411934E+03
    2.0594999999999999E+01   0.0000000000000000E+00   3.6926340544339820E-01   8.6932995720881723E-01   1.5454875556869203E+00   2.8057274449023901E+00  -7.3403034020094240E-19   2.3938779879625195E-03   2.2624500909181235E+00   8.8556538899151183E+03
    2.0689999999999998E+01   0.0000000000000000E+00   3.6120041594552010E-01   8.4315797970733786E-01   1.5659090745711075E+00   2.8307157513974857E+00  -4.5024955313826446E-19   2.6001555383609602E-03   2.3444439874153473E+00   9.0803547994359087E+03
    2.0785000000000000E+01   0.0000000000000000E+00   3.5068456228311262E-01   8.0927213254233266E-01   1.5933650122559180E+00   2.8637908251050916E+00   4.6375102688875106E-19   2.8033028752572206E-03   2.4170468171282438E+00   9.2199891848684056E+03
    2.0879999999999999E+01   0.0000000000000000E+00   3.3696991133594456E-01   7.6558456546163123E-01   1.6304316591722492E+00   2.9074879178949908E+00   1.6087522001402097E-18   3.0019532952552507E-03   2.4820801171616038E+00   9.2390950334796471E+03
    2.0975000000000001E+01   0.0000000000000000E+00   3.2061856958941382E-01   7.1429752034689553E-01   1.6764857957020984E+00   2.9603366901311063E+00   6.7631901288433833E-19   3.2035382696897260E-03   2.5471101605811652E+00   9.1416164083894291E+03
    2.1070000000000000E+01   0.0000000000000000E+00   3.0405542966358556E-01   6.6334771614576105E-01   1.7251430747861758E+00   3.0145255417069694E+00  -3.5658043458888155E-19   3.4130282141555685E-03   2.6157344853670486E+00   8.9940958593314317E+03
    2.1164999999999999E+01   0.0000000000000000E+00   2.8954597156388440E-01   6.1956069871542996E-01   1.7697806232859852E+00   3.0627957391872349E+00  -3.7444906127671332E-19   3.6258851572855892E-03   2.6836962686090056E+00   8.8688807597878840E+03
    2.1259999999999998E+01   0.0000000000000000E+00   2.7794575765986840E-01   5.8536728787932890E-01   1.8060896652067020E+00   3.1010462523539242E+00  -7.8015378368341872E-19   3.8413157144347228E-03   2.7496436495976795E+00   8.8031923403880755E+03
    2.1355000000000004E+01   0.0000000000000000E+00   2.6984623314781808E-01   5.6178855910871195E-01   1.8324125424218216E+00   3.1282604091994508E+00  -4.0178517959581572E-19   4.0584936312177801E-03   2.8120328804299572E+00   8.8297676456848621E+03
    2.1449999999999999E+01   0.0000000000000000E+00   2.6521167556587522E-01   5.4865872831545448E-01   1.8468827261509067E+00   3.1430836936685016E+00  -4.0880635069031960E-19   4.2808873229997898E-03   2.8723332446796022E+00   8.9614581220805430E+03
    2.1544999999999998E+01   0.0000000000000000E+00   2.6394415883743894E-01   5.4554406227279784E-01   1.8489718814196625E+00   3.1452342761025336E+00  -1.0269238172014783E-19   4.5063375256378891E-03   2.9261764957958607E+00   9.2159476020400180E+03
    2.1640000000000001E+01   0.0000000000000000E+00   2.6515427674218667E-01   5.4935130383029995E-01   1.8436354331658369E+00   3.1398829597992632E+00  -1.2777963948556375E-20   4.7410994839227720E-03   2.9737363521709721E+00   9.5845611613547389E+03
    2.1734999999999999E+01   0.0000000000000000E+00   2.6730253790660552E-01   5.5597778551413768E-01   1.8348164768416302E+00   3.1309869399574226E+00  -5.0701079242292888E-20   4.9950489031805748E-03   3.0214862396559314E+00   1.0018963209905665E+04
    2.1830000000000002E+01   0.0000000000000000E+00   2.7001377021169370E-01   5.6431035263755103E-01   1.8240344561653450E+00   3.1200374039323893E+00   2.0076794076751683E-19   5.2604687318000354E-03   3.0665208045582242E+00   1.0501900683366817E+04
    2.1925000000000001E+01   0.0000000000000000E+00   2.7308962977391854E-01   5.7378345159967270E-01   1.8120233696976682E+00   3.1077437632714338E+00  -9.9253326955611410E-20   5.5405062401915044E-03   3.1102809703727465E+00   1.1029566802323478E+04
    2.2020000000000003E+01   0.0000000000000000E+00   2.7658973245954344E-01   5.8460067439456498E-01   1.7985841947110088E+00   3.0938641183348339E+00  -1.9599465295482178E-19   5.8406059964376819E-03   3.1541672138336265E+00   1.1612103876751109E+04
    2.2115000000000002E+01   0.0000000000000000E+00   2.8069736784381727E-01   5.9734139420518106E-01   1.7831269073346840E+00   3.0777360455413176E+00   0.0000000000000000E+00   6.1655708589561722E-03   3.1986726223882482E+00   1.2267076753705936E+04
    2.2210000000000001E+01   0.0000000000000000E+00   2.8560104073805398E-01   6.1261931124651592E-01   1.7650875101099661E+00   3.0586941343616680E+00   1.8981061302922687E-19   6.5194409343144180E-03   3.2437356898932173E+00   1.3014320109473609E+04
    2.2305000000000000E+01   0.0000000000000000E+00   2.9145370577966434E-01   6.3095745276825044E-01   1.7440884411037669E+00   3.0362307915221676E+00   0.0000000000000000E+00   6.9020552211732020E-03   3.2877287055941959E+00   1.3872377621903783E+04
    2.2399999999999999E+01   0.0000000000000000E+00   2.9803241683286863E-01   6.5173031339897003E-01   1.7210362091607361E+00   3.0112171394576390E+00  -1.8189332959265066E-19   7.3063191274647344E-03   3.3281364542435541E+00   1.4834276351317512E+04
    2.2495000000000001E+01   0.0000000000000000E+00   3.0474671686437227E-01   6.7314361898961561E-01   1.6979331202838062E+00   2.9857677373173179E+00   5.3365735173844182E-19   7.7258291697090021E-03   3.3643942307691219E+00   1.5866774783754994E+04
    2.2590000000000000E+01   0.0000000000000000E+00   3.1108720510383925E-01   6.9363809739060311E-01   1.6762780344940726E+00   2.9615896156868140E+00   8.7130084000369249E-19   8.1502144084677070E-03   3.3949383924638270E+00   1.6933353805790281E+04
    2.2684999999999999E+01   0.0000000000000000E+00   3.1626849945891922E-01   7.1057263398898307E-01   1.6586425953361652E+00   2.9416291935436809E+00   0.0000000000000000E+00   8.5748976600212006E-03   3.4214899237051490E+00   1.7971968447420484E+04
    2.2780000000000001E+01   0.0000000000000000E+00   3.2008750744639969E-01   7.2355734354561041E-01   1.6446540402073273E+00   2.9257475526444412E+00  -2.5404041408904243E-19   8.9775051496519438E-03   3.4390682165588418E+00   1.8946712680068129E+04
    2.2875000000000000E+01   0.0000000000000000E+00   3.2156052316357830E-01   7.2911250064744726E-01   1.6377637128111266E+00   2.9179724241596925E+00   0.0000000000000000E+00   9.3660955499820439E-03   3.4530582678793151E+00   1.9776813869518068E+04
    2.2969999999999999E+01   0.0000000000000000E+00   3.2054249578369265E-01   7.2647138637656261E-01   1.6389115157504948E+00   2.9193464900079151E+00   2.1139985078942971E-20   9.7595284013564602E-03   3.4690959381958404E+00   2.0447723643268546E+04
    2.3065000000000001E+01   0.0000000000000000E+00   3.1818395623835993E-01   7.1972768941820964E-01   1.6436576711153204E+00   2.9249523946279319E+00  -2.5556022339321697E-19   1.0143104172983064E-02   3.4811034913113010E+00   2.1022370736114346E+04
    2.3160000000000000E+01   0.0000000000000000E+00   3.1453357289669176E-01   7.0896615034875765E-01   1.6521173843452430E+00   2.9348152743001492E+00  -6.8940314542613834E-19   1.0521691050133938E-02   3.4917717911832185E+00   2.1491047808498784E+04
    2.3254999999999999E+01   0.0000000000000000E+00   3.0984757077526326E-01   6.9498577681901463E-01   1.6637795820358074E+00   2.9482772753203639E+00  -6.9982938370163396E-19   1.0894310689617048E-02   3.5015104573409159E+00   2.1859732903927033E+04
    2.3349999999999994E+01   0.0000000000000000E+00   3.0439182867533737E-01   6.7864972203550500E-01   1.6780040867820762E+00   2.9645315063705491E+00  -3.5618635927375976E-19   1.1258378920086827E-02   3.5100994579673599E+00   2.2138261090808286E+04
    2.3445000000000000E+01   0.0000000000000000E+00   2.9839741593230140E-01   6.6071615008706575E-01   1.6941994661623416E+00   2.9828372475615761E+00  -1.8167083804966355E-19   1.1611746097005703E-02   3.5173764911332297E+00   2.2337233601123444E+04
    2.3539999999999999E+01   0.0000000000000000E+00   2.9207218053624062E-01   6.4186039532488137E-01   1.7118133437660090E+00   3.0025168970473084E+00  -7.4242070606993363E-19   1.1952432708228157E-02   3.5231509418973386E+00   2.2468422456966906E+04
    2.3634999999999998E+01   0.0000000000000000E+00   2.8556195377487287E-01   6.2255569890206219E-01   1.7304427154981890E+00   3.0230755608986448E+00  -5.6950978140819755E-19   1.2280394228865990E-02   3.5277152710743231E+00   2.2541212372732145E+04
    2.3729999999999997E+01   0.0000000000000000E+00   2.7907392352064353E-01   6.0345026186710604E-01   1.7494405406300524E+00   3.0437799135940642E+00   0.0000000000000000E+00   1.2596377826989115E-02   3.5314059642595454E+00   2.2572327288828146E+04
    2.3825000000000003E+01   0.0000000000000000E+00   2.7284987593975385E-01   5.8527786370125900E-01   1.7679921663593583E+00   3.0637491907518064E+00   5.9604324653874858E-19   1.2899674906338532E-02   3.5340244895346782E+00   2.2583587641697286E+04
    2.3920000000000002E+01   0.0000000000000000E+00   2.6705214632774643E-01   5.6851361157495606E-01   1.7854786239178071E+00   3.0823513388596431E+00  -2.0299446894444543E-19   1.3190207998735938E-02   3.5354842140958409E+00   2.2592256680639388E+04
    2.4015000000000001E+01   0.0000000000000000E+00   2.6183672881248693E-01   5.5358755544972071E-01   1.8013138363322130E+00   3.0990184741307161E+00   2.0703783182036894E-19   1.3467795709666859E-02   3.5356221638890921E+00   2.2616374359262190E+04
    2.4109999999999999E+01   0.0000000000000000E+00   2.5729648666127664E-01   5.4076259493023993E-01   1.8149724290049938E+00   3.1132590244161595E+00  -4.2138242404872988E-19   1.3733296637831436E-02   3.5345178289404959E+00   2.2669440668521933E+04
    2.4204999999999998E+01   0.0000000000000000E+00   2.5353453053147607E-01   5.3024683883310819E-01   1.8262390986820343E+00   3.1249189056424540E+00  -4.2763491434982338E-19   1.3986119899683496E-02   3.5318371288196060E+00   2.2766549615818592E+04
    2.4299999999999997E+01   0.0000000000000000E+00   2.5052220422245297E-01   5.2207477989673279E-01   1.8345069694527296E+00   3.1334654943775910E+00   2.1638843867164352E-19   1.4230458531323157E-02   3.5284631869691632E+00   2.2910920349023108E+04
    2.4395000000000003E+01   0.0000000000000000E+00   2.4838264023216111E-01   5.1631239823488695E-01   1.8402745062033192E+00   3.1393622019103273E+00   1.0912620256714700E-19   1.4463298964169933E-02   3.5234277442804687E+00   2.3120030372535497E+04
    2.4490000000000002E+01   0.0000000000000000E+00   2.4702600693319279E-01   5.1299938574207560E-01   1.8425433245687304E+00   3.1417302902168527E+00  -1.0972550885894401E-19   1.4693996025990082E-02   3.5188261643855872E+00   2.3390916311798450E+04
    2.4584999999999997E+01   0.0000000000000000E+00   2.4653792085131723E-01   5.1231961700503825E-01   1.8411647982538781E+00   3.1404021476406858E+00  -5.4971369553498027E-20   1.4914252646145459E-02   3.5123609658051831E+00   2.3738484633050299E+04
    2.4680000000000000E+01   0.0000000000000000E+00   2.4691640130829301E-01   5.1385275866293711E-01   1.8378288581548843E+00   3.1369900909094874E+00  -6.8608884850603208E-21   1.5122424925567750E-02   3.5030472456649462E+00   2.4170783078434113E+04
    2.4775000000000006E+01   0.0000000000000000E+00   2.4782396579483534E-01   5.1704720708366148E-01   1.8320950010088290E+00   3.1311545827320595E+00  -1.3671525988822709E-20   1.5340471119397042E-02   3.4954897351080274E+00   2.4662612561035989E+04
    2.4869999999999997E+01   0.0000000000000000E+00   2.4933651173345539E-01   5.2206834341389441E-01   1.8239848117197157E+00   3.1228717076858059E+00   0.0000000000000000E+00   1.5560933434701869E-02   3.4878027134570861E+00   2.5225227949270105E+04
    2.4965000000000000E+01   0.0000000000000000E+00   2.5140776907663021E-01   5.2876563730522996E-01   1.8138315342487406E+00   3.1124362268398484E+00   0.0000000000000000E+00   1.5780918837787674E-02   3.4793098945600347E+00   2.5857338961652098E+04
    2.5059999999999995E+01   0.0000000000000000E+00   2.5395671768249928E-01   5.3691189789094196E-01   1.8020049891888787E+00   3.1001876601850209E+00   1.0673099951632223E-19   1.6000100969411912E-02   3.4699532029052862E+00   2.6553710470130616E+04
    2.5155000000000001E+01   0.0000000000000000E+00   2.5689501238371393E-01   5.4626490677354533E-01   1.7888665348441102E+00   3.0864649069423313E+00   1.0551023961357359E-19   1.6219085349841601E-02   3.4599092902115993E+00   2.7307630734390426E+04
    2.5250000000000000E+01   0.0000000000000000E+00   2.6014972365258243E-01   5.5662530645484898E-01   1.7747144047449384E+00   3.0715471808522925E+00   3.1257062969248186E-19   1.6438255138076216E-02   3.4493053065991264E+00   2.8113470821606807E+04
    2.5344999999999999E+01   0.0000000000000000E+00   2.6362601353298870E-01   5.6772107790668502E-01   1.7599238514618369E+00   3.0558069606974319E+00  -1.0281631144396088E-19   1.6657117567284972E-02   3.4381567290849908E+00   2.8962078733934610E+04
    2.5439999999999998E+01   0.0000000000000000E+00   2.6720021802941174E-01   5.7918619388120418E-01   1.7449558005622432E+00   3.0397215524725123E+00  -2.0288197750762356E-19   1.6875385562012991E-02   3.4265811162255146E+00   2.9839871209079160E+04
    2.5535000000000004E+01   0.0000000000000000E+00   2.7076181201544752E-01   5.9068634050457947E-01   1.7301974846467827E+00   3.0237051517689513E+00   0.0000000000000000E+00   1.7092650364253718E-02   3.4146744551016335E+00   3.0733717953890984E+04
    2.5630000000000003E+01   0.0000000000000000E+00   2.7418979827497636E-01   6.0184554313999072E-01   1.7160746605407644E+00   3.0082412995933825E+00   9.8855079520335771E-20   1.7307390734556782E-02   3.4023579789843015E+00   3.1627922590792230E+04
    2.5725000000000001E+01   0.0000000000000000E+00   2.7732976737914883E-01   6.1217544394558532E-01   1.7030471563823939E+00   2.9938286782921666E+00   0.0000000000000000E+00   1.7518845031033507E-02   3.3897500138269359E+00   3.2501397149668184E+04
    2.5820000000000000E+01   0.0000000000000000E+00   2.8008443184086418E-01   6.2136269938911382E-01   1.6915567050921523E+00   2.9810965631947686E+00   9.6774583771003431E-20   1.7722717146718886E-02   3.3763070053165580E+00   3.3338476543619778E+04
    2.5914999999999999E+01   0.0000000000000000E+00   2.8221336197042546E-01   6.2859244283927174E-01   1.6821138075695625E+00   2.9703933369585211E+00   0.0000000000000000E+00   1.7922703857878631E-02   3.3630535383520490E+00   3.4104730914292290E+04
    2.6009999999999998E+01   0.0000000000000000E+00   2.8377703327789372E-01   6.3423185424873285E-01   1.6747610444759213E+00   2.9624507651547152E+00   4.7757660299440978E-20   1.8105483353652741E-02   3.3477590875342971E+00   3.4801913202256517E+04
    2.6105000000000004E+01   0.0000000000000000E+00   2.8443678012588580E-01   6.3698598292440556E-01   1.6701792194198923E+00   2.9573257302863940E+00  -2.3823443561115302E-20   1.8285470625069855E-02   3.3333022050842174E+00   3.5382086655714302E+04
    2.6200000000000003E+01   0.0000000000000000E+00   2.8405937167842454E-01   6.3627874810224161E-01   1.6690565422395149E+00   2.9556581682637915E+00  -7.1565287967745161E-20   1.8469926708179752E-02   3.3208554057433060E+00   3.5825479791710401E+04
    2.6294999999999998E+01   0.0000000000000000E+00   2.8306298047446643E-01   6.3371060355629938E-01   1.6705289467183284E+00   2.9574792465797506E+00   4.7878133457622181E-20   1.8639294400633468E-02   3.3067412948228450E+00   3.6180933589333195E+04
    2.6390000000000001E+01   0.0000000000000000E+00   2.8136430104094606E-01   6.2897924458890186E-01   1.6740952316814099E+00   2.9616041108108555E+00  -9.6334375796285178E-20   1.8805245055188942E-02   3.2931417037628412E+00   3.6433802522252299E+04
    2.6484999999999999E+01   0.0000000000000000E+00   2.7901376134265105E-01   6.2221821437633151E-01   1.6798069514283334E+00   2.9681124280576610E+00  -1.9429188138753094E-19   1.8970006714312284E-02   3.2804711752154723E+00   3.6586699489936880E+04
    2.6580000000000002E+01   0.0000000000000000E+00   2.7612965455272692E-01   6.1380168672296509E-01   1.6873773137915273E+00   2.9766745904770220E+00  -9.8160606313878923E-20   1.9133783386173386E-02   3.2687590549809862E+00   3.6651929434967053E+04
    2.6675000000000001E+01   0.0000000000000000E+00   2.7283807453106634E-01   6.0413723875380088E-01   1.6964375692970786E+00   2.9868547423428096E+00   9.9344837991265512E-20   1.9296202384334753E-02   3.2579202203500337E+00   3.6643906135895486E+04
    2.6770000000000003E+01   0.0000000000000000E+00   2.6926980069080875E-01   5.9364472092306864E-01   1.7065839966664762E+00   2.9981787571448208E+00   0.0000000000000000E+00   1.9456363194229238E-02   3.2477644066515277E+00   3.6578834971082397E+04
    2.6865000000000002E+01   0.0000000000000000E+00   2.6552383796317430E-01   5.8264237292098253E-01   1.7175004688808189E+00   3.0102741092602519E+00  -1.0208143464654511E-19   1.9614252483224577E-02   3.2382468416128742E+00   3.6469517148344479E+04
    2.6960000000000001E+01   0.0000000000000000E+00   2.6171479803788061E-01   5.7149169405000744E-01   1.7287972345110452E+00   3.0226977260431096E+00  -2.0713428904554663E-19   1.9770259373920469E-02   3.2293692126000910E+00   3.6331836784831125E+04
    2.7055000000000000E+01   0.0000000000000000E+00   2.5797314365966934E-01   5.6059552685132319E-01   1.7400135707385174E+00   3.0349404781587346E+00  -2.1013857433079088E-19   1.9923418728783095E-02   3.2208963300295199E+00   3.6184771810598591E+04
    2.7150000000000006E+01   0.0000000000000000E+00   2.5437863345822653E-01   5.5019509253490839E-01   1.7508500698362315E+00   3.0466832688851064E+00  -3.1966192219428765E-19   2.0073338582769999E-02   3.2126842961250883E+00   3.6040953065899696E+04
    2.7244999999999997E+01   0.0000000000000000E+00   2.5100487895810303E-01   5.4050716535851906E-01   1.7610150611081661E+00   3.0576200245849630E+00  -3.2395849544416910E-19   2.0220156202115366E-02   3.2046729894598496E+00   3.5912604988752675E+04
    2.7339999999999996E+01   0.0000000000000000E+00   2.4791762845941515E-01   5.3172203400507922E-01   1.7702494923283245E+00   3.0674995329014636E+00  -1.0933088736194808E-19   2.0363991493621111E-02   3.1967947917473780E+00   3.5811246087629814E+04
    2.7434999999999999E+01   0.0000000000000000E+00   2.4516296668442911E-01   5.2396218199400657E-01   1.7783248937646119E+00   3.0760659811523894E+00   1.1055933397570162E-19   2.0505153185904228E-02   3.1890090356259400E+00   3.5745875637947618E+04
    2.7530000000000001E+01   0.0000000000000000E+00   2.4278865985848402E-01   5.1737673356795166E-01   1.7850889774643373E+00   3.0832717857162080E+00   3.3492158564493741E-19   2.0643750074720992E-02   3.1812383688646881E+00   3.5726014184881176E+04
    2.7625000000000000E+01   0.0000000000000000E+00   2.4080528388430078E-01   5.1193497115164610E-01   1.7903610336763847E+00   3.0887167020554140E+00   2.2512009599557391E-19   2.0781023276597668E-02   3.1735800208547116E+00   3.5755854466044577E+04
    2.7720000000000002E+01   0.0000000000000000E+00   2.3925715585394589E-01   5.0788476505255709E-01   1.7940887726205383E+00   3.0928426734820675E+00   0.0000000000000000E+00   2.0916702383500858E-02   3.1658907715812306E+00   3.5844785672861217E+04
    2.7814999999999998E+01   0.0000000000000000E+00   2.3815824135994973E-01   5.0499595654824780E-01   1.7962081086946551E+00   3.0947922280888052E+00  -1.1381111213015438E-19   2.1056925833843672E-02   3.1589834415035796E+00   3.5997836932569393E+04
    2.7910000000000004E+01   0.0000000000000000E+00   2.3750823060685822E-01   5.0367271409997638E-01   1.7957651928270069E+00   3.0942012695565633E+00   0.0000000000000000E+00   2.1200437850423463E-02   3.1525738593365471E+00   3.6217767293204684E+04
    2.8005000000000003E+01   0.0000000000000000E+00   2.3742002146193680E-01   5.0414962715270328E-01   1.7934002415390404E+00   3.0921619525491746E+00   0.0000000000000000E+00   2.1338145032350795E-02   3.1451200540112580E+00   3.6525872656179046E+04
    2.8100000000000001E+01   0.0000000000000000E+00   2.3783896967947932E-01   5.0579174206440491E-01   1.7897693595350477E+00   3.0881978556460448E+00   1.3355143425336167E-21   2.1481428889888458E-02   3.1380388132636710E+00   3.6919103633742976E+04
    2.8195000000000000E+01   0.0000000000000000E+00   2.3869065457851979E-01   5.0884064677522867E-01   1.7841002809738016E+00   3.0821632613035281E+00   7.0973281191087433E-20   2.1638779022639665E-02   3.1323435263548900E+00   3.7390547701486699E+04
    2.8289999999999999E+01   0.0000000000000000E+00   2.4003106223271164E-01   5.1341025388039774E-01   1.7764060537113011E+00   3.0739956827262174E+00   5.6461555558711576E-20   2.1806928759008987E-02   3.1273451739529241E+00   3.7953257361445118E+04
    2.8384999999999998E+01   0.0000000000000000E+00   2.4188003322613613E-01   5.1955034453767823E-01   1.7667125537027715E+00   3.0636647226534204E+00  -1.1205990817272964E-19   2.1986145750801774E-02   3.1228674861060712E+00   3.8615206806023445E+04
    2.8480000000000000E+01   0.0000000000000000E+00   2.4425008476872673E-01   5.2731345324937084E-01   1.7550184124501012E+00   3.0511188303336412E+00   1.1097254822983008E-19   2.2178834405514408E-02   3.1190158267188597E+00   3.9383876447355142E+04
    2.8574999999999999E+01   0.0000000000000000E+00   2.4717007035127725E-01   5.3681583722116732E-01   1.7412417532599214E+00   3.0362164069496544E+00  -1.0966155519402491E-19   2.2389072096717963E-02   3.1160775281456763E+00   4.0270402709105525E+04
    2.8670000000000002E+01   0.0000000000000000E+00   2.5070455739944331E-01   5.4829482793554285E-01   1.7251649925249974E+00   3.0186558827411045E+00  -1.0811552288198570E-19   2.2622541946415182E-02   3.1144731353621635E+00   4.1293408196355573E+04
    2.8765000000000001E+01   0.0000000000000000E+00   2.5497128389488277E-01   5.6216756641418786E-01   1.7063819205075736E+00   2.9979046054673124E+00   1.0630630201992564E-19   2.2887135262390421E-02   3.1147856431272181E+00   4.2483013829387331E+04
    2.8859999999999999E+01   0.0000000000000000E+00   2.6016863401044776E-01   5.7912948510563211E-01   1.6842063298374519E+00   2.9730752254083441E+00   0.0000000000000000E+00   2.3195064534564457E-02   3.1179507828272954E+00   4.3887462328781330E+04
    2.8955000000000002E+01   0.0000000000000000E+00   2.6664042450351133E-01   6.0038898218627090E-01   1.6574396832710678E+00   2.9426221889261379E+00  -2.0330791448901756E-19   2.3568977218046450E-02   3.1258549984388408E+00   4.5588359900520380E+04
    2.9049999999999997E+01   0.0000000000000000E+00   2.7505280774160445E-01   6.2831545377170683E-01   1.6237098265227519E+00   2.9034825175669394E+00   0.0000000000000000E+00   2.4066863132075497E-02   3.1439810594427655E+00   4.7742275675112134E+04
    2.9145000000000003E+01   0.0000000000000000E+00   2.8705493622075112E-01   6.6903731002040967E-01   1.5764717053101365E+00   2.8472183699167029E+00   0.0000000000000000E+00   2.4914115381994555E-02   3.1961916808277837E+00   5.0732561273605199E+04
    2.9239999999999998E+01   0.0000000000000000E+00   3.0970845739262309E-01   7.4961611845079656E-01   1.4874203539815669E+00   2.7361471908157298E+00  -7.0014372976004424E-19   2.6965962899788493E-02   3.3713233552412860E+00   5.6141006583143389E+04
    2.9335000000000001E+01   0.0000000000000000E+00   3.7319076924393862E-01   9.9084483226857811E-01   1.2546851288402914E+00   2.4086683284234911E+00   5.8104447475055766E-19   2.8842484765348637E-02   3.4676488983317570E+00   7.0397683665502598E+04
    2.9430000000000000E+01   0.0000000000000000E+00   4.6279910273700098E-01   1.3362750777977566E+00   1.0196727676345354E+00   2.0470890633826468E+00   4.6854117308072387E-19   2.8502893562422395E-02   3.2952165775154061E+00   9.0509904208244174E+04
    2.9524999999999999E+01   0.0000000000000000E+00   4.9408589751237375E-01   1.4569908159500202E+00   9.5584256222813757E-01   1.9419921356311181E+00   4.3887193621362243E-19   2.8839248495140260E-02   3.2261411748388666E+00   9.9791852827478433E+04
    2.9619999999999997E+01   0.0000000000000000E+00   4.8712268193951674E-01   1.4339487415396048E+00   9.6059660261208946E-01   1.9500458396348050E+00  -1.1128635687509657E-19   3.0877943295664647E-02   3.3520337622724945E+00   9.9791852827478433E+04
    2.9715000000000000E+01   0.0000000000000000E+00   5.1312583367109732E-01   1.5475849263927262E+00   8.8252989503405144E-01   1.8126331389382309E+00  -8.4517449821515306E-19   3.2444016020861652E-02   3.4285764340037530E+00   1.0000000000000000E+05
    2.9809999999999999E+01   0.0000000000000000E+00   5.6054058758717074E-01   1.7543883482784157E+00   7.5395369605549023E-01   1.5775176841454410E+00   3.8684162984608071E-19   3.3612260420702485E-02   3.4766025930960933E+00   1.0000000000000000E+05
    2.9905000000000001E+01   0.0000000000000000E+00   6.8191706298033794E-01   1.9559467421592576E+00   6.2437300731930478E-01   1.2582827389683919E+00  -6.3597304208636043E-19   3.7128037053736067E-02   3.8720149702274047E+00   1.0000000000000000E+05
    3.0000000000000000E+01   0.0000000000000000E+00   8.6159475924742424E-01   1.5579929737424325E+00   4.3588212353739048E-01   6.9023065453969668E-01  -2.5038045077745361E-03   2.2194587445530378E-02   2.3399352447845114E+00   6.2500003749999996E+04
    2.0499999999999993E+01   2.9999999999999999E-02   3.7449244720200670E-01   8.8928347500152272E-01   1.5252153042532279E+00   2.7809114108308308E+00   9.1437885025395793E-03   4.2701713439503219E-03   2.9086398193073384E+00   1.1671316902500217E+04
    2.0594999999999999E+01   3.0017499999999999E-02   3.6790399059313050E-01   8.6788781568425966E-01   1.5412120145975778E+00   2.8007924749177278E+00   9.8562555794205354E-03   4.5065778010492706E-03   2.9732839401355435E+00   1.1901079756430378E+04
    2.0689999999999998E+01   3.0034999999999992E-02   3.5956599350637874E-01   8.4088854632678700E-01   1.5621347263895642E+00   2.8264678874875662E+00   1.2795700017173894E-02   4.7280273765985571E-03   3.0268686328398955E+00   1.2049342438536351E+04
    2.0784999999999997E+01   3.0052499999999989E-02   3.4876845579065552E-01   8.0611837454481450E-01   1.5902592826735282E+00   2.8604059547753540E+00   1.7861750280435792E-02   4.9215833325753147E-03   3.0659439017272874E+00   1.2072879527344425E+04
    2.0879999999999995E+01   3.0069999999999982E-02   3.3481717808588485E-01   7.6166115484070440E-01   1.6280372073990184E+00   2.9049578181182305E+00   2.4691491952672104E-02   5.0853042923739199E-03   3.0934594151081622E+00   1.1929562075206399E+04
    2.0975000000000005E+01   3.0087499999999986E-02   3.1846191416453173E-01   7.1031356979255911E-01   1.6742799130635182E+00   2.9580135092436368E+00   3.0100275743195591E-02   5.2380221594828368E-03   3.1203169895978364E+00   1.1644076502917211E+04
    2.1070000000000000E+01   3.0104999999999982E-02   3.0217737371464343E-01   6.6017722089139419E-01   1.7222677995933129E+00   3.0114862858028530E+00   3.0897016023785095E-02   5.3989892587302402E-03   3.1534309836960732E+00   1.1319516770223427E+04
    2.1164999999999999E+01   3.0122499999999979E-02   2.8802051586341493E-01   6.1744607092539217E-01   1.7658563867025985E+00   3.0587525516965854E+00   2.8298779714925334E-02   5.5706835788445598E-03   3.1906211297422837E+00   1.1045164377764118E+04
    2.1260000000000002E+01   3.0139999999999976E-02   2.7679243827670641E-01   5.8436313001317164E-01   1.8008990623096721E+00   3.0958521084036410E+00   2.3463242176404751E-02   5.7572085307345689E-03   3.2314563040136828E+00   1.0865760861554163E+04
    2.1355000000000004E+01   3.0157499999999969E-02   2.6904160401499738E-01   5.6181050551612233E-01   1.8259916014715050E+00   3.1219936206904189E+00   1.6436132016873144E-02   5.9590463602410479E-03   3.2736489391842611E+00   1.0818492410593088E+04
    2.1449999999999996E+01   3.0174999999999966E-02   2.6461889021747120E-01   5.4928394714175621E-01   1.8396987931836799E+00   3.1361457083625446E+00   8.3891795967935157E-03   6.1822233224539773E-03   3.3186479642410527E+00   1.0910946787412711E+04
    2.1544999999999998E+01   3.0192499999999962E-02   2.6340906294979616E-01   5.4632541371463261E-01   1.8415378069931578E+00   3.1380194768805296E+00   1.3118502696913335E-03   6.4205422581937672E-03   3.3595932648938400E+00   1.1160026116312525E+04
    2.1639999999999993E+01   3.0209999999999959E-02   2.6458210167694041E-01   5.5003776380513025E-01   1.8362957952476961E+00   3.1327235797020450E+00  -3.5648449342823968E-03   6.6771609282413507E-03   3.3941756816553830E+00   1.1554079222104148E+04
    2.1734999999999999E+01   3.0227499999999956E-02   2.6668690447196930E-01   5.5655907011992967E-01   1.8275868625465788E+00   3.1238818633941152E+00  -5.8898989058322367E-03   6.9615947343652307E-03   3.4291708363670654E+00   1.2032531302112926E+04
    2.1830000000000002E+01   3.0244999999999956E-02   2.6938367752763592E-01   5.6487874830694296E-01   1.8168000727065108E+00   3.1128624277074963E+00  -6.5858205102200026E-03   7.2598824459647144E-03   3.4614409665990369E+00   1.2570775241025061E+04
    2.1924999999999994E+01   3.0262499999999949E-02   2.7247379983634912E-01   5.7443350683946193E-01   1.8046576494988695E+00   3.1003601123121389E+00  -7.0973232151046936E-03   7.5746375982809668E-03   3.4923687534298971E+00   1.3162580788609999E+04
    2.2019999999999996E+01   3.0279999999999946E-02   2.7600778312001828E-01   5.8540405526242567E-01   1.7909841985648449E+00   3.0861506470574254E+00  -7.9647900910445654E-03   7.9131524663685233E-03   3.5234593501962141E+00   1.3820004170126223E+04