 variables = x,y,rho,p,mach,u,v,k,w,vis
 zone t ="100000",i=         101 ,j=         101 ,f=point
    0.0000000000000000E+00   0.0000000000000000E+00   1.0000169353627508E+00   3.4743782848292026E+00   6.6651898932100037E-02   1.4699799748812373E-01   6.5150957474599457E-08   6.4826748630042081E-14   1.4699955037677403E-04   1.0000160164541097E-02
    9.9999999999999728E-02   0.0000000000000000E+00   1.0000348442643610E+00   3.4743801312147187E+00   6.6650794429615384E-02   1.4699428438387926E-01  -5.2937714627670622E-23   6.4826427925748511E-14   1.4699899247409490E-04   1.0000327734660214E-02
    1.9999999999999946E-01   0.0000000000000000E+00   1.0000409962920298E+00   3.4743821618269557E+00   6.6649102159885232E-02   1.4699014300989768E-01  -2.6468694483368198E-23   6.4826242760765613E-14   1.4699855218375902E-04   1.0000390643622096E-02
    2.9999999999999921E-01   0.0000000000000000E+00   1.0000307926824525E+00   3.4743827193889780E+00   6.6647379067654305E-02   1.4698710451377395E-01   7.9406893653829835E-23   6.4826529870458973E-14   1.4699892731589315E-04   9.3206959284961605E-03
    3.9999999999999891E-01   0.0000000000000000E+00   1.0000071007825404E+00   3.4743834956162223E+00   6.6645424696575348E-02   1.4698455181243442E-01   5.2939183293765337E-23   6.4827448996856558E-14   1.4700116894930711E-04   7.0511036016327206E-03
    5.0000000000000044E-01   0.0000000000000000E+00   9.9997754426947560E-01   3.4743843342564480E+00   6.6643489510404150E-02   1.4698247369869205E-01   2.6470374013282606E-23   6.4828645907638793E-14   1.4700516415711050E-04   4.7928585551568247E-03
    5.9999999999999987E-01   0.0000000000000000E+00   9.9995525754542891E-01   3.4743852205380472E+00   6.6641980978047508E-02   1.4698080326922078E-01   0.0000000000000000E+00   6.4829695505372352E-14   1.4700933179234057E-04   4.1216437655388211E-03
    6.9999999999999951E-01   0.0000000000000000E+00   9.9994583904740919E-01   3.4743861275033865E+00   6.6641079026839051E-02   1.4697952536637782E-01   5.2942426615651741E-23   6.4831056686264432E-14   1.4701235994638159E-04   4.6360185720926723E-03
    7.9999999999999893E-01   0.0000000000000000E+00   9.9994573660062591E-01   3.4743870458124526E+00   6.6640666748149918E-02   1.4697864302243785E-01   5.2942432039727377E-23   6.4834093148245280E-14   1.4701444577679127E-04   6.0674269263839460E-03
    9.0000000000000024E-01   0.0000000000000000E+00   9.9995215675983717E-01   3.4743879682041854E+00   6.6640647548183995E-02   1.4697814835111914E-01   0.0000000000000000E+00   6.4839351446657350E-14   1.4701616394914625E-04   8.2723784055957431E-03
    9.9999999999999978E-01   0.0000000000000000E+00   9.9996484969801247E-01   3.4743889429431629E+00   6.6640985940488909E-02   1.4697798247305896E-01   2.6470710055149149E-23   6.4844694522452725E-14   1.4701761670476955E-04   9.7823627113380190E-03
    1.0999999999999994E+00   0.0000000000000000E+00   9.9998152314808109E-01   3.4743899161606624E+00   6.6641568468629536E-02   1.4697806248282250E-01  -2.6470268688931707E-23   6.4848424019527112E-14   1.4701931189330136E-04   1.0001804996467677E-02
    1.1999999999999993E+00   0.0000000000000000E+00   9.9999749838502971E-01   3.4743909429289586E+00   6.6642345508273151E-02   1.4697862393502834E-01  -5.2939691638118896E-23   6.4851149996210354E-14   1.4702263922112177E-04   1.0002158857177288E-02
    1.2999999999999989E+00   0.0000000000000000E+00   1.0000075020315253E+00   3.4743919195717101E+00   6.6643351496302905E-02   1.4698012811258501E-01   0.0000000000000000E+00   6.4853681530748630E-14   1.4702910601849142E-04   1.0002209419590916E-02
    1.4000000000000008E+00   0.0000000000000000E+00   1.0000106295642457E+00   3.4743927013455904E+00   6.6644561347754108E-02   1.4698258309892637E-01   1.0587799296985906E-22   6.4856513522590490E-14   1.4703910592108439E-04   1.0001997211001716E-02
    1.5000000000000002E+00   0.0000000000000000E+00   1.0000095671261102E+00   3.4743934539172319E+00   6.6645940725212294E-02   1.4698571927440443E-01   2.1175621091520063E-22   6.4859853847435716E-14   1.4705255901700594E-04   1.0001586647425568E-02
    1.5999999999999996E+00   0.0000000000000000E+00   1.0000046870655190E+00   3.4743941745948694E+00   6.6647484631774820E-02   1.4698949821736218E-01   1.0587862214674847E-22   6.4863970686925743E-14   1.4707007619733421E-04   1.0000981338946384E-02
    1.6999999999999993E+00   0.0000000000000000E+00   9.9999532349610409E-01   3.4743948055449283E+00   6.6649232070837505E-02   1.4699405369512125E-01   5.2939806776606413E-23   6.4869147225810779E-14   1.4709258100931882E-04   1.0000155605995886E-02
    1.7999999999999989E+00   0.0000000000000000E+00   9.9998371378509532E-01   3.4743953290165530E+00   6.6651330432338354E-02   1.4699954599683582E-01  -1.0588084280494776E-22   6.4875439443075684E-14   1.4712054030940997E-04   9.9991088885294458E-03
    1.8999999999999999E+00   0.0000000000000000E+00   9.9997409542550464E-01   3.4743957324693380E+00   6.6653987520080962E-02   1.4700612173153588E-01  -1.0588186123134952E-22   6.4882713624776569E-14   1.4715402181588521E-04   9.9978585790656826E-03
    1.9999999999999996E+00   0.0000000000000000E+00   9.9996896865173457E-01   3.4743959954518679E+00   6.6657348702769834E-02   1.4701391728484833E-01  -5.2941202040271869E-23   6.4890863772962674E-14   1.4719326315004348E-04   9.9963974899840539E-03
    2.0999999999999992E+00   0.0000000000000000E+00   9.9996761971248238E-01   3.4743960994079486E+00   6.6661450495862098E-02   1.4702306522444544E-01   0.0000000000000000E+00   6.4899898961957321E-14   1.4723898545969093E-04   9.9946712922944318E-03
    2.1999999999999993E+00   0.0000000000000000E+00   9.9996891989406334E-01   3.4743960377448588E+00   6.6666315389298125E-02   1.4703369794413854E-01   5.2941204621641829E-23   6.4909775806590353E-14   1.4729215348341349E-04   9.9925970741127357E-03
    2.2999999999999998E+00   0.0000000000000000E+00   9.9997337311349621E-01   3.4743957786973434E+00   6.6672032443278129E-02   1.4704597409924969E-01   1.0588193771312584E-22   6.4920295154635765E-14   1.4735392257832634E-04   9.9900716097443450E-03
    2.3999999999999995E+00   0.0000000000000000E+00   9.9998129561684412E-01   3.4743952931675604E+00   6.6678688084981161E-02   1.4706006036646405E-01   0.0000000000000000E+00   6.4931248360980829E-14   1.4742619580881259E-04   9.9869380974682877E-03
    2.5000000000000000E+00   0.0000000000000000E+00   9.9999091257982498E-01   3.4743945920223926E+00   6.6686295465396145E-02   1.4707611640380927E-01   1.0588008058356797E-22   6.4942547227602440E-14   1.4751215421426268E-04   9.9829516032647579E-03
    2.5999999999999996E+00   0.0000000000000000E+00   9.9999866889493294E-01   3.4743936373455160E+00   6.6694822058301698E-02   1.4709433107054834E-01  -2.1175851868641232E-22   6.4954185825649504E-14   1.4761636676982991E-04   9.9777695849776471E-03
    2.6999999999999993E+00   0.0000000000000000E+00   1.0000021031136925E+00   3.4743923288219292E+00   6.6704287381653377E-02   1.4711492636902501E-01   1.0587889573143218E-22   6.4966036148356104E-14   1.4774443476562568E-04   9.9709743622485043E-03
    2.7999999999999998E+00   0.0000000000000000E+00   1.0000023351868823E+00   3.4743906068376127E+00   6.6714832170886140E-02   1.4713812914777633E-01   4.2351548463934598E-22   6.4977698143890592E-14   1.4790264557100271E-04   9.9620998515818522E-03
    2.8999999999999999E+00   0.0000000000000000E+00   1.0000007350430045E+00   3.4743884805150751E+00   6.6726603593436476E-02   1.4716416347696984E-01  -1.0587904058113944E-22   6.4988765007474852E-14   1.4809848782713095E-04   9.9506065090604005E-03
    3.0000000000000004E+00   0.0000000000000000E+00   9.9999664981849368E-01   3.4743859473943184E+00   6.6739696485108232E-02   1.4719328658371497E-01   0.0000000000000000E+00   6.4999038954978538E-14   1.4834103802213803E-04   9.9358690581394168E-03
    3.1000000000000001E+00   0.0000000000000000E+00   9.9998979506705699E-01   3.4743829425035302E+00   6.6754244340141267E-02   1.4722581257094430E-01   0.0000000000000000E+00   6.5008431755929071E-14   1.4864067727026774E-04   9.9172087280382931E-03
    3.1999999999999993E+00   0.0000000000000000E+00   9.9998192263362595E-01   3.4743793847124733E+00   6.6770468229288685E-02   1.4726209845885266E-01   6.3528619474202000E-22   6.5016874881551309E-14   1.4900897182921181E-04   9.8939100429958366E-03
    3.2999999999999998E+00   0.0000000000000000E+00   9.9997561318649097E-01   3.4743752173605840E+00   6.6788631031161186E-02   1.4730253283883854E-01   6.3529020314443348E-22   6.5024372948362237E-14   1.4945906391919262E-04   9.8651987805326059E-03
    3.3999999999999995E+00   0.0000000000000000E+00   9.9997185777317599E-01   3.4743703851288901E+00   6.6808962966456970E-02   1.4734754920052981E-01   4.2352839265924276E-22   6.5031105141860640E-14   1.5000634325987051E-04   9.8301999021876817E-03
    3.5000000000000000E+00   0.0000000000000000E+00   9.9997019278958488E-01   3.4743648123936044E+00   6.6831671876132093E-02   1.4739763833155414E-01   4.2352909784808665E-22   6.5037353168921950E-14   1.5066900294574402E-04   9.7879069703338366E-03
    3.5999999999999996E+00   0.0000000000000000E+00   9.9997001061687485E-01   3.4743584135099455E+00   6.6856986244028971E-02   1.4745334696187373E-01  -4.2352917500584407E-22   6.5043365490420827E-14   1.5146884418583856E-04   9.7371440904096308E-03
    3.6999999999999993E+00   0.0000000000000000E+00   9.9997146942461557E-01   3.4743510988586568E+00   6.6885185014272791E-02   1.4751527657552230E-01  -4.2352855714057709E-22   6.5049267640109163E-14   1.5243255860606742E-04   9.6765102758007183E-03
    3.7999999999999998E+00   0.0000000000000000E+00   9.9997500635622727E-01   3.4743427694799749E+00   6.6916582510806122E-02   1.4758408584121588E-01   0.0000000000000000E+00   6.5055083164295125E-14   1.5359385125238750E-04   9.6042898212373509E-03
    3.8999999999999995E+00   0.0000000000000000E+00   9.9997948470866338E-01   3.4743333158409921E+00   6.6951467016362523E-02   1.4766049185273644E-01   0.0000000000000000E+00   6.5060862603138283E-14   1.5499644004227412E-04   9.5183377816572788E-03
    4.0000000000000000E+00   0.0000000000000000E+00   9.9998212655532992E-01   3.4743226187981273E+00   6.6990099436465125E-02   1.4774527248639335E-01   0.0000000000000000E+00   6.5066709826267730E-14   1.5669668996451887E-04   9.4160312244739135E-03
    4.0999999999999996E+00   0.0000000000000000E+00   9.9998224107279654E-01   3.4743105484053238E+00   6.7032841633188511E-02   1.4783927423773841E-01   0.0000000000000000E+00   6.5072563405077506E-14   1.5876470973255678E-04   9.2943639885782817E-03
    4.1999999999999993E+00   0.0000000000000000E+00   9.9998078559757153E-01   3.4742969619213904E+00   6.7080147823457947E-02   1.4794342526512125E-01   4.2352461139947200E-22   6.5078241620096970E-14   1.6128550699943009E-04   9.1500900028333408E-03
    4.2999999999999998E+00   0.0000000000000000E+00   9.9997762655293387E-01   3.4742817004836715E+00   6.7132479767796585E-02   1.4805875061201690E-01   4.2352594936255933E-22   6.5083629527951455E-14   1.6436137753126555E-04   8.9798569088550273E-03
    4.3999999999999995E+00   0.0000000000000000E+00   9.9997235505085014E-01   3.4742645858304937E+00   6.7190339954220635E-02   1.4818638518783542E-01   4.2352818204220630E-22   6.5088634416350824E-14   1.6811526126675683E-04   8.7803656720409403E-03
    4.5000000000000000E+00   0.0000000000000000E+00   9.9996457460360966E-01   3.4742454193154622E+00   6.7254287080309796E-02   1.4832758666159312E-01  -8.4706295479524157E-22   6.5093179076755982E-14   1.7269501001859695E-04   8.5485744099331532E-03
    4.5999999999999996E+00   0.0000000000000000E+00   9.9995475386480315E-01   3.4742239814800060E+00   6.7324972504230793E-02   1.4848375256005159E-01  -8.4707127395568306E-22   6.5097157876429851E-14   1.7827760356617535E-04   8.2819999313916010E-03
    4.6999999999999993E+00   0.0000000000000000E+00   9.9994477235859935E-01   3.4742000298104827E+00   6.7403167881825710E-02   1.4865644026891112E-01   0.0000000000000000E+00   6.5100407644484356E-14   1.8507361175732523E-04   7.9790802541838662E-03
    4.7999999999999998E+00   0.0000000000000000E+00   9.9993633799037673E-01   3.4741732951287569E+00   6.7489720323347227E-02   1.4884738512396137E-01   0.0000000000000000E+00   6.5102811702651043E-14   1.9333319697451365E-04   7.6395071215264914E-03
    4.8999999999999995E+00   0.0000000000000000E+00   9.9992956101424602E-01   3.4741434780126639E+00   6.7585511005572571E-02   1.4905851524619196E-01   8.4709261559898275E-22   6.5104390932723588E-14   2.0335431365826347E-04   7.2644774202898828E-03
    5.0000000000000000E+00   0.0000000000000000E+00   9.9992370052989465E-01   3.4741102454609272E+00   6.7691486557783107E-02   1.4929196569237685E-01   2.5412927410524261E-21   6.5105252861570009E-14   2.1549328562755360E-04   6.8568386354646762E-03
    5.0999999999999996E+00   0.0000000000000000E+00   9.9991818576411573E-01   3.4740732271596588E+00   6.7808701114611528E-02   1.4955009524397109E-01  -8.4710225227778625E-22   6.5105523476831320E-14   2.3017822794979515E-04   6.4210977228262717E-03
    5.1999999999999993E+00   0.0000000000000000E+00   9.9991272951854870E-01   3.4740320109240885E+00   6.7938329746094275E-02   1.4983550735417536E-01   0.0000000000000000E+00   6.5105339588683929E-14   2.4792557205985627E-04   5.9632835425229595E-03
    5.3000000000000007E+00   0.0000000000000000E+00   9.9990693213388560E-01   3.4739861373814200E+00   6.8081666471001778E-02   1.5015107519439316E-01   0.0000000000000000E+00   6.5104876688077791E-14   2.6935965160998000E-04   5.4906728210181149E-03
    5.3999999999999995E+00   0.0000000000000000E+00   9.9990009983333694E-01   3.4739350939996596E+00   6.8240131329101214E-02   1.5049997088296194E-01   1.6942351488823405E-21   6.5104365868194045E-14   2.9523516221397367E-04   5.0113996223287386E-03
    5.5000000000000000E+00   0.0000000000000000E+00   9.9989151173398794E-01   3.4738783082007361E+00   6.8415294926596343E-02   1.5088569961635781E-01   0.0000000000000000E+00   6.5104084706062839E-14   3.2646230239812560E-04   4.5339765315918394E-03
    5.5999999999999996E+00   0.0000000000000000E+00   9.9988067238437850E-01   3.4738151391506560E+00   6.8608905226927669E-02   1.5131213956497072E-01   0.0000000000000000E+00   6.5104351929624350E-14   3.6413459154154053E-04   4.0667661295845647E-03
    5.7000000000000011E+00   0.0000000000000000E+00   9.9986724475946864E-01   3.4737448678712228E+00   6.8822906325445590E-02   1.5178358796785429E-01  -6.7771632819760217E-21   6.5105545230994983E-14   4.0955956393664710E-04   3.6174560937380709E-03
    5.7999999999999998E+00   0.0000000000000000E+00   9.9985092330351022E-01   3.4736666857420038E+00   6.9059458002819540E-02   1.5230481350856009E-01  -6.7772739116403564E-21   6.5108124989940739E-14   4.6429268294237333E-04   3.1926011774382288E-03
    5.8999999999999995E+00   0.0000000000000000E+00   9.9983151094406841E-01   3.4735796815900493E+00   6.9320965211454130E-02   1.5288111512737407E-01  -3.3887027483441029E-21   6.5112646651164606E-14   5.3017501065487230E-04   2.7972903459469603E-03
    6.0000000000000000E+00   0.0000000000000000E+00   9.9980903310587510E-01   3.4734828272766789E+00   6.9610112129708676E-02   1.5351838786010361E-01   0.0000000000000000E+00   6.5119772724946291E-14   6.0937545471495850E-04   2.4349764427516870E-03
    6.0999999999999996E+00   0.0000000000000000E+00   9.9978369118936328E-01   3.4733749612782763E+00   6.9929894431435352E-02   1.5422319676246590E-01  -3.3888648303380604E-21   6.5130297458221329E-14   7.0443858806012451E-04   2.1074761402176860E-03
    6.1999999999999993E+00   0.0000000000000000E+00   9.9975572800655232E-01   3.4732547693927884E+00   7.0283652859872911E-02   1.5500286042263034E-01   0.0000000000000000E+00   6.5145179722280839E-14   8.1833901368035011E-04   1.8151179147711586E-03
    6.2999999999999998E+00   0.0000000000000000E+00   9.9972535227547032E-01   3.4731207612376518E+00   7.0675113991621699E-02   1.5586554580939538E-01   0.0000000000000000E+00   6.5165574776897423E-14   9.5454311545239382E-04   1.5569938194588155E-03
    6.4000000000000004E+00   0.0000000000000000E+00   9.9969267949427931E-01   3.4729712416055265E+00   7.1108437746201986E-02   1.5682037668570101E-01   3.3891733514855546E-21   6.5192867982033673E-14   1.1170788828668550E-03   1.3312623975101341E-03
    6.5000000000000000E+00   0.0000000000000000E+00   9.9965760597595588E-01   3.4728042756549655E+00   7.1588270169374871E-02   1.5787755887202948E-01   0.0000000000000000E+00   6.5228716023814961E-14   1.3106140889270707E-03   1.1354550703093613E-03
    6.5999999999999996E+00   0.0000000000000000E+00   9.9961970345180728E-01   3.4726176469537751E+00   7.2119806395408659E-02   1.5904852651290541E-01  -2.0336524644227644E-20   6.5275089783037958E-14   1.5405422110783956E-03   9.6675143334103023E-04
    6.6999999999999993E+00   0.0000000000000000E+00   9.9957823755521291E-01   3.4724088069905665E+00   7.2708869717623303E-02   1.6034611414603472E-01  -1.3558245514844169E-20   6.5334311316338610E-14   1.8130743519671735E-03   8.2220388753771582E-04
    6.7999999999999989E+00   0.0000000000000000E+00   9.9953226084704272E-01   3.4721748141788069E+00   7.3362007687679462E-02   1.6178476006710779E-01  -1.3558869170049462E-20   6.5409086588428398E-14   2.1353343820252530E-03   6.9890514391878758E-04
    6.9000000000000004E+00   0.0000000000000000E+00   9.9948068523702194E-01   3.4719122603662553E+00   7.4086605252389873E-02   1.6338074829703916E-01  -1.3559568840347215E-20   6.5502538128584614E-14   2.5154535723555670E-03   5.9410168616049592E-04
    7.0000000000000000E+00   0.0000000000000000E+00   9.9942231638192791E-01   3.4716171804066969E+00   7.4891018490940070E-02   1.6515249829382772E-01   6.7801803771658652E-21   6.5618235677318432E-14   2.9626600785787123E-03   5.0526174732378154E-04
    7.0999999999999996E+00   0.0000000000000000E+00   9.9935588364270311E-01   3.4712849403951673E+00   7.5784735096611378E-02   1.6712091310359825E-01  -1.3561262186868959E-20   6.5760219047049766E-14   3.4873579718722801E-03   4.3010832119804007E-04
    7.1999999999999993E+00   0.0000000000000000E+00   9.9928007252799878E-01   3.4709100982829035E+00   7.6778568455085294E-02   1.6930980015823405E-01   2.7124582043917579E-20   6.5933008599853257E-14   4.1011900949225561E-03   3.6662738275194403E-04
    7.2999999999999998E+00   0.0000000000000000E+00   9.9919351264115308E-01   3.4704862280102375E+00   7.7884891907843937E-02   1.7174638277433921E-01   2.7126931839750673E-20   6.6141601463626458E-14   4.8170788822267689E-03   3.1305992701578561E-04
    7.4000000000000004E+00   0.0000000000000000E+00   9.9909466503252342E-01   3.4700056965187920E+00   7.9117921562913709E-02   1.7446192544902969E-01  -2.7129615701886729E-20   6.6391451558672826E-14   5.6492393212954559E-03   2.6788446137588338E-04
    7.5000000000000000E+00   0.0000000000000000E+00   9.9898161749816050E-01   3.4694593790799590E+00   8.0494061694606073E-02   1.7749250342787085E-01  -5.4265371529096277E-20   6.6688426124989795E-14   6.6131580377742794E-03   2.2979469895874989E-04
    7.5999999999999996E+00   0.0000000000000000E+00   9.9885190424631465E-01   3.4688362930400558E+00   8.2032335345074980E-02   1.8087995618182723E-01   0.0000000000000000E+00   6.7038722449183130E-14   7.7255314326518682E-03   1.9767562196402265E-04
    7.6999999999999993E+00   0.0000000000000000E+00   9.9870247367299736E-01   3.4681231233007113E+00   8.3754929618587035E-02   1.8467307728347643E-01   5.4280539052740050E-20   6.7448725597416520E-14   9.0041537754981960E-03   1.7057986691102779E-04
    7.8000000000000007E+00   0.0000000000000000E+00   9.9852975784358788E-01   3.4673036006602862E+00   8.5687887435902235E-02   1.8892911148759370E-01   2.7144963982518998E-20   6.7924796053462186E-14   1.0467744014971790E-02   1.4770550925500897E-04
    7.9000000000000004E+00   0.0000000000000000E+00   9.9832966865788919E-01   3.4663576782144077E+00   8.7861983745297717E-02   1.9371565497462695E-01  -2.7150404483697719E-20   6.8472981256862221E-14   1.2135697646276372E-02   1.2837577044339218E-04
    8.0000000000000000E+00   0.0000000000000000E+00   9.9809738384097924E-01   3.4652604285032349E+00   9.0313842073993358E-02   1.9911309159157789E-01   0.0000000000000000E+00   6.9098639193560569E-14   1.4027745457052184E-02   1.1202085639723148E-04
    8.0999999999999996E+00   0.0000000000000000E+00   9.9782688888613724E-01   3.4639805479304746E+00   9.3087375499013775E-02   2.0521775053042166E-01   0.0000000000000000E+00   6.9805951117294880E-14   1.6163492441282120E-02   9.8161955081413178E-05
    8.1999999999999993E+00   0.0000000000000000E+00   9.9751033013419221E-01   3.4624783030692279E+00   9.6235674938727117E-02   2.1214604572396770E-01   2.7172705377889415E-20   7.0597290057809083E-14   1.8561795781331145E-02   8.6397311610362506E-05
    8.3000000000000007E+00   0.0000000000000000E+00   9.9713724811674831E-01   3.4607026694295460E+00   9.9823520891802645E-02   2.2003996754370281E-01   5.4365744261042898E-20   7.1472405662083258E-14   2.1239920809010476E-02   7.6390227029775559E-05
    8.4000000000000004E+00   0.0000000000000000E+00   9.9669369054542978E-01   3.4585872832585838E+00   1.0393077089574947E-01   2.2907446285591843E-01   5.4389938592477022E-20   7.2427384835562245E-14   2.4212400321031505E-02   6.7858757486616875E-05
    8.5000000000000000E+00   0.0000000000000000E+00   9.9616107743189608E-01   3.4560446165968326E+00   1.0865699114661266E-01   2.3946749475554685E-01   0.0000000000000000E+00   7.3453340640900649E-14   2.7489563662153375E-02   6.0566775688414911E-05
    8.5999999999999996E+00   0.0000000000000000E+00   9.9551454403731543E-01   3.4529574164590993E+00   1.1412787600981374E-01   2.5149395339559505E-01   1.0890872252739933E-19   7.4534847152419366E-14   3.1075958696621362E-02   5.4315867700528451E-05
    8.6999999999999993E+00   0.0000000000000000E+00   9.9472036678706011E-01   3.4491659196708651E+00   1.2050428990902941E-01   2.6550520923647319E-01   1.6349351164701743E-19   7.5648237691415941E-14   3.4968505988098655E-02   4.8938680779310161E-05
    8.8000000000000007E+00   0.0000000000000000E+00   9.9373182492868928E-01   3.4444480827169874E+00   1.2799517019045800E-01   2.8195694404043370E-01   1.0910410085369937E-19   7.6759927164318060E-14   3.9153937135777375E-02   4.4294086049186473E-05
    8.9000000000000004E+00   0.0000000000000000E+00   9.9248276474505015E-01   3.4384890809488535E+00   1.3687634835189882E-01   3.0144960680475674E-01   1.0924141063185265E-19   7.7825055182518756E-14   4.3605238640909913E-02   4.0263512450066096E-05
    9.0000000000000000E+00   0.0000000000000000E+00   9.9087722234080666E-01   3.4308321627005558E+00   1.4751878310338454E-01   3.2478882482829485E-01  -2.1883683427987796E-19   7.8800872955682795E-14   4.8277444711255557E-02   3.6753889403669188E-05
    9.0999999999999996E+00   0.0000000000000000E+00   9.8877212863258634E-01   3.4207968776455653E+00   1.6043090793209477E-01   3.5307540237202506E-01  -3.2895410613511897E-19   8.0111564042579867E-14   5.3102278301243935E-02   3.3880220280269192E-05
    9.1999999999999993E+00   0.0000000000000000E+00   9.8594812077949334E-01   3.4073410716094923E+00   1.7632148866160768E-01   3.8783749195122985E-01  -2.1993087661211447E-19   9.4722445961991988E-14   5.7975633697857971E-02   3.6368745906856282E-05
    9.3000000000000007E+00   0.0000000000000000E+00   9.8206121191806994E-01   3.3888311393676926E+00   1.9619468277062335E-01   4.3122750872090732E-01   0.0000000000000000E+00   4.0536163730637005E-13   6.2734862314384451E-02   1.4016714441854430E-04
    9.3999999999999986E+00   0.0000000000000000E+00   9.7655562883487268E-01   3.3626336021191783E+00   2.2149448816358427E-01   4.8631450238110974E-01   2.2204616725809359E-19   6.0036007919595844E-12   6.7132746122946771E-02   1.9280216160831884E-03
    9.5000000000000000E+00   0.0000000000000000E+00   9.6851078099047672E-01   3.3244093258467249E+00   2.5430540104745936E-01   5.5747112463806692E-01   4.4778114761994176E-19   8.7258972913968485E-11   7.0807218820982912E-02   2.6542346075685813E-02
    9.5999999999999996E+00   0.0000000000000000E+00   9.5640863688347633E-01   3.2670472347977308E+00   2.9760213831963278E-01   6.5080468552114934E-01   0.0000000000000000E+00   9.9680683913228317E-10   7.3305651835263386E-02   2.9191788614102354E-01
    9.6999999999999993E+00   0.0000000000000000E+00   9.3760484147769096E-01   3.1786168744727687E+00   3.5533023300361871E-01   7.7409043152511625E-01  -1.8501648020959823E-18   8.2015840491513989E-09   7.3833306708410762E-02   2.3712633233315059E+00
    9.8000000000000007E+00   0.0000000000000000E+00   9.0929856647576779E-01   3.0453783678022415E+00   4.3274975131253385E-01   9.3698933514339544E-01  -2.8616400705989176E-18   5.7832633042079357E-08   7.2175773840829086E-02   1.6752827512599662E+01
    9.9000000000000004E+00   0.0000000000000000E+00   8.6677944506705618E-01   2.8472884744572768E+00   5.3599161607796797E-01   1.1492063538631228E+00   0.0000000000000000E+00   3.6036616147733418E-07   7.0251083619465152E-02   3.7516723188961763E+01
    1.0000000000000000E+01   0.0000000000000000E+00   8.1048975713226268E-01   2.5957306578536254E+00   6.5157619726722749E-01   1.3793199386149237E+00  -1.0701698946293532E-18   7.6632508802652730E-07   6.9373167761937887E-02   9.5200112202570779E+01
    0.0000000000000000E+00   3.1750000000000000E-02   1.0000126603109036E+00   3.4743782803971794E+00   6.6651952262398326E-02   1.4699842922176945E-01  -2.9935459065406859E-07   6.4826775378902975E-14   1.4699958303839470E-04   1.0000119318401736E-02
    9.9999999999999742E-02   3.1857499999999990E-02   1.0000347141920929E+00   3.4743801943489725E+00   6.6650762301305469E-02   1.4699422442206839E-01  -6.8231862619872465E-07   6.4826287862297815E-14   1.4699867614998885E-04   1.0000326346803562E-02
    1.9999999999999948E-01   3.1964999999999993E-02   1.0000442586624192E+00   3.4743823128389559E+00   6.6648977046262381E-02   1.4698963051564559E-01  -8.1339531559953306E-07   6.4826012511755260E-14   1.4699804312308422E-04   1.0000422379666599E-02
    2.9999999999999916E-01   3.2072499999999997E-02   1.0000387665954855E+00   3.4743829083790145E+00   6.6647066023150764E-02   1.4698583210102462E-01  -9.1329601492826155E-07   6.4826271996627073E-14   1.4699836151935717E-04   9.4592730174095693E-03
    3.9999999999999891E-01   3.2180000000000000E-02   1.0000195564010617E+00   3.4743837135016844E+00   6.6644840610078998E-02   1.4698235286944253E-01  -1.0151198053936024E-06   6.4827249484199627E-14   1.4700075063863360E-04   7.2291248705250079E-03
    5.0000000000000044E-01   3.2287500000000004E-02   9.9998820790480192E-01   3.4743845756600602E+00   6.6642387406091949E-02   1.4697926443590414E-01  -1.1140795157391825E-06   6.4828929759745473E-14   1.4700594399120825E-04   4.8329160856410529E-03
    6.0000000000000020E-01   3.2395000000000007E-02   9.9995741731896526E-01   3.4743854906983604E+00   6.6640138895952425E-02   1.4697658749615622E-01  -1.2150168585870590E-06   6.4830888105826995E-14   1.4701240950016917E-04   4.0990303278764552E-03
    6.9999999999999951E-01   3.2502500000000011E-02   9.9993975184223971E-01   3.4743864368354158E+00   6.6638531630118597E-02   1.4697436087941224E-01  -1.3208372524238787E-06   6.4833139791738174E-14   1.4701774354506443E-04   4.5587564370902075E-03
    7.9999999999999905E-01   3.2610000000000000E-02   9.9993532837075172E-01   3.4743874047191832E+00   6.6637578645009479E-02   1.4697260458403613E-01  -1.4309827069028872E-06   6.4836849791586688E-14   1.4702148995654785E-04   5.9174653943513383E-03
    9.0000000000000002E-01   3.2717500000000010E-02   9.9993966779227850E-01   3.4743883788529053E+00   6.6637128904791162E-02   1.4697131435940100E-01  -1.5373507934737847E-06   6.4842505410152831E-14   1.4702436901715968E-04   8.0317129962671364E-03
    9.9999999999999978E-01   3.2825000000000000E-02   9.9995272485111719E-01   3.4743893875486558E+00   6.6637167818190041E-02   1.4697046196574456E-01  -1.6166118858640608E-06   6.4847942882031387E-14   1.4702640036898623E-04   9.6374926117971608E-03
    1.0999999999999994E+00   3.2932500000000003E-02   9.9997392773105220E-01   3.4743903848773101E+00   6.6637656307247772E-02   1.4697000227818374E-01  -1.6883165587798240E-06   6.4851516259022795E-14   1.4702786548562085E-04   1.0001624062124849E-02
    1.1999999999999993E+00   3.3040000000000000E-02   9.9999712301940846E-01   3.4743914961503570E+00   6.6638439758764781E-02   1.4697004914469036E-01  -1.8630727509461176E-06   6.4853897431498290E-14   1.4703046044429901E-04   1.0002046769438194E-02
    1.2999999999999985E+00   3.3147500000000003E-02   1.0000133721893114E+00   3.4743926194679586E+00   6.6639330543874137E-02   1.4697084343355071E-01  -2.1277762792515279E-06   6.4856125527465292E-14   1.4703627431250673E-04   1.0002157424549286E-02
    1.4000000000000004E+00   3.3255000000000014E-02   1.0000195446079061E+00   3.4743935159865234E+00   6.6640224725240393E-02   1.4697238090000356E-01  -2.3310013848875776E-06   6.4858852617059413E-14   1.4704594222316687E-04   1.0001982091822709E-02
    1.5000000000000000E+00   3.3362500000000003E-02   1.0000191323517915E+00   3.4743943432502302E+00   6.6641165321215917E-02   1.4697450313808297E-01  -2.4748653744573323E-06   6.4862240431020436E-14   1.4705921178703783E-04   1.0001597859004950E-02
    1.5999999999999996E+00   3.3470000000000007E-02   1.0000135010349838E+00   3.4743951482309243E+00   6.6642191071248552E-02   1.4697719624398609E-01  -2.6436467241652664E-06   6.4866483360414708E-14   1.4707660435317812E-04   1.0001012979977299E-02