 variables = x,y,rho,p,mach,u,v,k,w,vis
 zone t ="100000",i=          11 ,j=          21 ,f=point
    2.0000000000000000E+01   0.0000000000000000E+00   4.5820500928607305E-01   1.1740175202064829E+00   1.3367097670008539E+00   2.5314771246795766E+00   2.3661944992150883E-19   1.1808965140906963E-03   1.5546489036779227E+00   7.8895666235726212E+03
    2.0050000000000001E+01   0.0000000000000000E+00   4.4265771724687797E-01   1.1188103179648814E+00   1.3714433812633053E+00   2.5796697369181296E+00   0.0000000000000000E+00   1.2702916707624473E-03   1.6250606672553192E+00   7.8439612800063760E+03
    2.0100000000000001E+01   0.0000000000000000E+00   4.3028150793293241E-01   1.0753579747718076E+00   1.3996080756165348E+00   2.6179086247843828E+00   2.5197507968539008E-19   1.3597337865998513E-03   1.6911374680423032E+00   7.8428353267592038E+03
    2.0149999999999999E+01   0.0000000000000000E+00   4.1984093769099939E-01   1.0390934059468537E+00   1.4237544520464176E+00   2.6501568817401950E+00   0.0000000000000000E+00   1.4506075840533495E-03   1.7547570270244246E+00   7.8681472737577969E+03
    2.0200000000000003E+01   0.0000000000000000E+00   4.1083519986539990E-01   1.0081186917897489E+00   1.4448753001660162E+00   2.6779755351698618E+00   2.6390196673525459E-19   1.5433085829622277E-03   1.8164735307979984E+00   7.9132315855952002E+03
    2.0250000000000000E+01   0.0000000000000000E+00   4.0297392246165120E-01   9.8132111882264250E-01   1.4635374889224209E+00   2.7022602659991501E+00   0.0000000000000000E+00   1.6380411348742132E-03   1.8765634037341461E+00   7.9745784696205537E+03
    2.0300000000000001E+01   0.0000000000000000E+00   3.9606795674358125E-01   9.5797321256547929E-01   1.4800970223408747E+00   2.7235779114853522E+00   0.0000000000000000E+00   1.7350392262598206E-03   1.9352960144357991E+00   8.0501948133140104E+03
    2.0349999999999998E+01   0.0000000000000000E+00   3.9004362869538767E-01   9.3776036440873445E-01   1.4946672129379519E+00   2.7421620024546187E+00   0.0000000000000000E+00   1.8342304863572586E-03   1.9925720091250183E+00   8.1401735948343494E+03
    2.0399999999999999E+01   0.0000000000000000E+00   3.8472209170624522E-01   9.2003644676699414E-01   1.5075999552541968E+00   2.7585133729964992E+00   0.0000000000000000E+00   1.9364800807457217E-03   2.0492670731991889E+00   8.2422205011632796E+03
    2.0449999999999999E+01   0.0000000000000000E+00   3.8036437088233810E-01   9.0562352442956806E-01   1.5182240034179053E+00   2.7718626184545001E+00   0.0000000000000000E+00   2.0396140682418275E-03   2.1029539085542592E+00   8.3639617216069855E+03
    2.0500000000000000E+01   0.0000000000000000E+00   3.7565598423653385E-01   8.9018425001907386E-01   1.5296964806213242E+00   2.7861773978996687E+00  -4.3292355957898060E-19   2.1903040726982854E-03   2.1735713973654307E+00   8.5793761773411934E+03
    2.0000000000000000E+01   2.9999999999999999E-02   4.5671218494058136E-01   1.1706879424836152E+00   1.3360125064581365E+00   2.5306048189203985E+00   2.2024760541782137E-02   2.9588230124087344E-03   2.3824488390203586E+00   1.1565485668715799E+04
    2.0049999999999994E+01   3.0000000000000006E-02   4.4131190173013563E-01   1.1162088113326414E+00   1.3700069071237417E+00   2.5778152585086724E+00   2.0561611644801407E-02   3.0844783970846398E-03   2.4466821108960808E+00   1.1403572480931638E+04
    2.0100000000000005E+01   2.9999999999999995E-02   4.2898643735282205E-01   1.0731099120570131E+00   1.3976802566500832E+00   2.6154436407287345E+00   1.9044415082241591E-02   3.2065979430387069E-03   2.5051974710690206E+00   1.1308971125635773E+04
    2.0149999999999999E+01   2.9999999999999999E-02   4.1857496631976848E-01   1.0370979644436784E+00   1.4214193158449886E+00   2.6472097977412035E+00   1.7605863845249342E-02   3.3284824815793435E-03   2.5606754381323769E+00   1.1256050403757921E+04
    2.0199999999999996E+01   2.9999999999999999E-02   4.0959224380643261E-01   1.0063350797647841E+00   1.4421762957464210E+00   2.6746128225225898E+00   1.6283551704447303E-02   3.4510166584886164E-03   2.6138593122116824E+00   1.1234626625447803E+04
    2.0250000000000004E+01   2.9999999999999999E-02   4.0175258551894527E-01   9.7972919531059799E-01   1.4605006203732593E+00   2.6985215313054094E+00   1.5065894634875151E-02   3.5747003699872263E-03   2.6651367943424678E+00   1.1239084935559884E+04
    2.0299999999999994E+01   2.9999999999999995E-02   3.9487189047644333E-01   9.5657509719748191E-01   1.4767268100020674E+00   2.7194731354244701E+00   1.3896515815918720E-02   3.7001554695047490E-03   2.7149107429135575E+00   1.1266272344245754E+04
    2.0349999999999991E+01   2.9999999999999999E-02   3.8887597305750166E-01   9.3655827806375691E-01   1.4909667328874796E+00   2.7376976111586897E+00   1.2722931171061515E-02   3.8274238596199294E-03   2.7631140248250028E+00   1.1315905473213592E+04
    2.0400000000000002E+01   2.9999999999999995E-02   3.8359412619868327E-01   9.1906577900154685E-01   1.5035380227609998E+00   2.7536526328032744E+00   1.1516779651690864E-02   3.9581908746363940E-03   2.8108563398931277E+00   1.1384727867767233E+04
    2.0449999999999999E+01   2.9999999999999999E-02   3.7926398728829225E-01   9.0483503004234478E-01   1.5138490299913692E+00   2.7666651949725285E+00   1.0100324971111647E-02   4.0879753987393226E-03   2.8547267173325208E+00   1.1482212075803796E+04
    2.0499999999999996E+01   2.9999999999999999E-02   3.7449244720200670E-01   8.8928347500152272E-01   1.5252153042532279E+00   2.7809114108308308E+00   9.1437885025395793E-03   4.2701713439503219E-03   2.9086398193073384E+00   1.1671316902500217E+04
    2.0000000000000000E+01   5.9999999999999998E-02   4.5363167280212169E-01   1.1685508821574642E+00   1.3255582143025693E+00   2.5166809233421805E+00   4.7435609563019447E-02   8.1776217491309998E-03   3.7628158875740589E+00   2.1439159631347706E+04
    2.0050000000000001E+01   6.0000000000000012E-02   4.3849947305730819E-01   1.1149302843084803E+00   1.3588579071472262E+00   2.5632632494698373E+00   4.4492401375132953E-02   8.3471651291517606E-03   3.8068057218369202E+00   2.0950340553800077E+04
    2.0099999999999998E+01   5.9999999999999991E-02   4.2628508764871775E-01   1.0721881256427528E+00   1.3860656427836249E+00   2.6005490284025670E+00   4.1300049664137549E-02   8.5063235327412414E-03   3.8437409014922181E+00   2.0593145381500824E+04
    2.0149999999999999E+01   5.9999999999999998E-02   4.1592131805182841E-01   1.0363300260880375E+00   1.4094495556606006E+00   2.6320941789014705E+00   3.8206337576539608E-02   8.6618908798255859E-03   3.8773918204251192E+00   2.0317047743112387E+04
    2.0200000000000010E+01   5.9999999999999998E-02   4.0696736319363352E-01   1.0056704518479089E+00   1.4298745184438137E+00   2.6592822018763647E+00   3.5351389159318694E-02   8.8168159965870459E-03   3.9088008187446559E+00   2.0104738612735913E+04
    2.0250000000000000E+01   5.9999999999999998E-02   3.9915789008989450E-01   9.7918648677522702E-01   1.4478433743105554E+00   2.6829249827571955E+00   3.2696610130162111E-02   8.9728965433577366E-03   3.9385237389207401E+00   1.9946351604781667E+04
    2.0300000000000001E+01   5.9999999999999991E-02   3.9232067673279691E-01   9.5621463606957968E-01   1.4636544568551424E+00   2.7035175752129774E+00   3.0100819539471347E-02   9.1319941422812658E-03   3.9670985481970131E+00   1.9836269410563356E+04
    2.0349999999999991E+01   5.9999999999999998E-02   3.8637449201300800E-01   9.3641345515463126E-01   1.4774421389828341E+00   2.7213214165906807E+00   2.7471110353448146E-02   9.2943591198890105E-03   3.9944421953393507E+00   1.9772679997984953E+04
    2.0399999999999999E+01   5.9999999999999991E-02   3.8115033975442886E-01   9.1917995979589551E-01   1.4895014521161405E+00   2.7367681176155596E+00   2.4768502142752561E-02   9.4628779314539623E-03   4.0217469460967870E+00   1.9748556428864038E+04
    2.0450000000000003E+01   5.9999999999999998E-02   3.7682063597683180E-01   9.0502019921481913E-01   1.4994558907004887E+00   2.7494529388884743E+00   2.1754778261329467E-02   9.6263244001682340E-03   4.0439051248925182E+00   1.9776186702242128E+04
    2.0500000000000000E+01   5.9999999999999998E-02   3.7185043632603648E-01   8.8888521355744388E-01   1.5109410560037162E+00   2.7639845535229939E+00   2.0141799568295992E-02   9.8414408528791700E-03   4.0639684038605406E+00   1.9884446498165133E+04
    2.0000000000000000E+01   8.9999999999999997E-02   4.4926359396743443E-01   1.1701660162111234E+00   1.2993684877045597E+00   2.4801415142517174E+00   6.9041179383430532E-02   1.6268958937991764E-02   4.6814162534991910E+00   3.3724937457882064E+04
    2.0050000000000001E+01   8.9999999999999997E-02   4.3459203243060646E-01   1.1172702463976045E+00   1.3329894975165901E+00   2.5279522466363171E+00   6.5360701465392371E-02   1.6387349877029701E-02   4.7005519812940397E+00   3.3530793130807142E+04
    2.0100000000000001E+01   9.0000000000000011E-02   4.2261937355252771E-01   1.0747240055505687E+00   1.3605479875895319E+00   2.5663654977985235E+00   6.1024228934849392E-02   1.6497171493993837E-02   4.7128326202396957E+00   3.3042995842308686E+04
    2.0149999999999999E+01   8.9999999999999997E-02   4.1236668509453434E-01   1.0387435894233288E+00   1.3843262768744888E+00   2.5989903455613472E+00   5.6647822645455231E-02   1.6611783068044787E-02   4.7229699760738804E+00   3.2416367619135468E+04
    2.0199999999999999E+01   8.9999999999999997E-02   4.0347705958804980E-01   1.0079063680658178E+00   1.4050647676280004E+00   2.6270586213402134E+00   5.2518365771643663E-02   1.6735274972983716E-02   4.7320078303758280E+00   3.1910412142441986E+04
    2.0250000000000000E+01   8.9999999999999997E-02   3.9573000580563972E-01   9.8132430482128741E-01   1.4231972851286550E+00   2.6513097769557050E+00   4.8601692622460030E-02   1.6869144830840208E-02   4.7403816838184092E+00   3.1508526877267093E+04
    2.0299999999999997E+01   8.9999999999999997E-02   3.8896764329125633E-01   9.5836895683488876E-01   1.4390073532744945E+00   2.6722372016603266E+00   4.4705554196573467E-02   1.7014689330123980E-02   4.7484357869412435E+00   3.1199179705562874E+04
    2.0350000000000001E+01   8.9999999999999997E-02   3.8308977407075528E-01   9.3861703570213451E-01   1.4527084774819472E+00   2.6902154835156287E+00   4.0743364152287978E-02   1.7168607880465515E-02   4.7558629702438200E+00   3.0971391059629634E+04
    2.0399999999999999E+01   9.0000000000000011E-02   3.7792199706750290E-01   9.2143292517753395E-01   1.4646376939878820E+00   2.7057414926165593E+00   3.6711420625248611E-02   1.7330595367161448E-02   4.7632564498867520E+00   3.0808288861810666E+04
    2.0449999999999999E+01   8.9999999999999997E-02   3.7352096444511285E-01   9.0691535324132855E-01   1.4747759127527604E+00   2.7188645973760366E+00   3.2505915027313106E-02   1.7479735878244102E-02   4.7645130931545205E+00   3.0718007082739470E+04
    2.0500000000000000E+01   8.9999999999999997E-02   3.6824226295987428E-01   8.8959722638289584E-01   1.4871083907752998E+00   2.7346872956056858E+00   3.0837890897483872E-02   1.7656576661811516E-02   4.7550136269233256E+00   3.0670444159699822E+04
    2.0000000000000000E+01   1.2000000000000000E-01   4.4286162180309369E-01   1.1707645726358709E+00   1.2612991585107818E+00   2.4248178714516513E+00   8.7842268691946654E-02   2.6491383306448495E-02   5.3069509129847656E+00   4.2032810015193994E+04
    2.0050000000000001E+01   1.2000000000000002E-01   4.2898901332690104E-01   1.1192883552716979E+00   1.2956226531431327E+00   2.4747308561952361E+00   8.4282213463054076E-02   2.6440256979189444E-02   5.3100328015569138E+00   4.2526466001021283E+04
    2.0100000000000009E+01   1.1999999999999998E-01   4.1747938597204198E-01   1.0772634212550685E+00   1.3240511113847817E+00   2.5152916786170154E+00   7.9474189443423493E-02   2.6394933227297253E-02   5.3063862613095507E+00   4.2722034112592097E+04
    2.0149999999999999E+01   1.2000000000000000E-01   4.0749427633487223E-01   1.0413189564162693E+00   1.3487482386486120E+00   2.5499848518541079E+00   7.4261903280246580E-02   2.6379235483732361E-02   5.3013357137655603E+00   4.2745010378631749E+04
    2.0199999999999999E+01   1.2000000000000000E-01   3.9878837873199036E-01   1.0103915215686199E+00   1.3702813243196583E+00   2.5798207593914264E+00   6.9117768759084527E-02   2.6393630068046358E-02   5.2957730628205892E+00   4.2821701506030498E+04
    2.0249999999999996E+01   1.2000000000000000E-01   3.9120433296212015E-01   9.8378301444131055E-01   1.3889965190835278E+00   2.6054426213074011E+00   6.4091795188713677E-02   2.6435320940462626E-02   5.2899030449688498E+00   4.2930691106629558E+04
    2.0300000000000008E+01   1.1999999999999998E-01   3.8460414147249694E-01   9.6090593052006623E-01   1.4051829877313595E+00   2.6273749166250244E+00   5.9035690506963744E-02   2.6501934875373633E-02   5.2837960589609487E+00   4.3064967593655863E+04
    2.0349999999999998E+01   1.2000000000000000E-01   3.7886195002631046E-01   9.4122757317879624E-01   1.4191562665764008E+00   2.6461429022550940E+00   5.3921781066724787E-02   2.6586345781258475E-02   5.2771265462655137E+00   4.2979866488247833E+04
    2.0399999999999999E+01   1.1999999999999998E-01   3.7379786840022849E-01   9.2406790652925630E-01   1.4313309734079811E+00   2.6623653537908263E+00   4.8831512202206544E-02   2.6682269206203504E-02   5.2696945962561861E+00   4.2666448081271708E+04
    2.0450000000000006E+01   1.2000000000000000E-01   3.6931028056091653E-01   9.0895968120028237E-01   1.4421717594502643E+00   2.6767215049076500E+00   4.3906876013343615E-02   2.6754755682034823E-02   5.2549869904954543E+00   4.2396940616004926E+04
    2.0500000000000004E+01   1.2000000000000000E-01   3.6365865260447117E-01   8.9001684550647586E-01   1.4560739401398159E+00   2.6949156372571985E+00   4.2376762550305501E-02   2.6815872844108572E-02   5.2244907322751821E+00   4.2100024452475453E+04
    2.0000000000000000E+01   1.4999999999999999E-01   4.3514070139911021E-01   1.1707626299940288E+00   1.2146395495722380E+00   2.3550829785070575E+00   1.0245838044576820E-01   3.8182960814469542E-02   5.7362204673684802E+00   4.8082650670478273E+04
    2.0050000000000008E+01   1.5000000000000005E-01   4.2217441359323410E-01   1.1210187445800086E+00   1.2496596703585456E+00   2.4073407177173909E+00   9.9658815341674270E-02   3.7931362047429362E-02   5.7343483311295111E+00   4.8637473845088629E+04
    2.0100000000000001E+01   1.4999999999999999E-01   4.1125285505136794E-01   1.0798104933448625E+00   1.2790358297560762E+00   2.4503908628387574E+00   9.5064773471391986E-02   3.7685778356888876E-02   5.7247280651943040E+00   4.9223098052595960E+04
    2.0149999999999999E+01   1.4999999999999999E-01   4.0164448850187917E-01   1.0440780025748857E+00   1.3048736128212048E+00   2.4876836143579202E+00   8.9558164530577980E-02   3.7482493268041060E-02   5.7130126674952439E+00   4.9947848245527486E+04
    2.0200000000000003E+01   1.4999999999999999E-01   3.9322022328464284E-01   1.0131705630116410E+00   1.3275013001179743E+00   2.5198981293914420E+00   8.3780592296173087E-02   3.7323027133071146E-02   5.7002022918940218E+00   5.0658404271050080E+04
    2.0250000000000000E+01   1.4999999999999999E-01   3.8588855081865431E-01   9.8661253082998579E-01   1.3471337831648440E+00   2.5475133193392878E+00   7.7903866033463803E-02   3.7203124295215786E-02   5.6864786255807092E+00   5.1308545801876855E+04
    2.0300000000000008E+01   1.4999999999999999E-01   3.7952862510400442E-01   9.6385210404923827E-01   1.3640689683808569E+00   2.5710891911790386E+00   7.1896938200977714E-02   3.7118642430795677E-02   5.6718478371694525E+00   5.1903570487570098E+04
    2.0349999999999998E+01   1.4999999999999999E-01   3.7398420401906862E-01   9.4424081209359212E-01   1.3787091541945693E+00   2.5912877905624487E+00   6.5869237572658570E-02   3.7066123583244723E-02   5.6562300143561286E+00   5.2234088380650166E+04
    2.0399999999999999E+01   1.4999999999999999E-01   3.6905543881689451E-01   9.2700645237233359E-01   1.3915774962243888E+00   2.6088974687979918E+00   6.0049342367507016E-02   3.7036149871829183E-02   5.6388688103971951E+00   5.2310979934432493E+04
    2.0449999999999992E+01   1.4999999999999999E-01   3.6447698338875839E-01   9.1108904406156799E-01   1.4036401784745571E+00   2.6252778691800671E+00   5.5003215884538090E-02   3.6973528649651151E-02   5.6130711952840571E+00   5.2150979327377754E+04
    2.0500000000000000E+01   1.4999999999999999E-01   3.5843080378433551E-01   8.9021150453373443E-01   1.4197348941271590E+00   2.6468172541092501E+00   5.4082354904929832E-02   3.6851349759394213E-02   5.5683841681037016E+00   5.2061955493869289E+04
    2.0000000000000000E+01   1.7999999999999999E-01   4.2687224979212102E-01   1.1699354045451138E+00   1.1637002957107230E+00   2.2766345086335136E+00   1.1270755807134042E-01   5.0588899571726541E-02   6.0352705908149433E+00   5.6861679392598977E+04
    2.0050000000000001E+01   1.7999999999999999E-01   4.1472882994779353E-01   1.1219508204882589E+00   1.1991298366620959E+00   2.3309721619503017E+00   1.1116785616555214E-01   5.0202489590189088E-02   6.0357353240375629E+00   5.7288957618560933E+04
    2.0100000000000001E+01   1.8000000000000002E-01   4.0445530267572249E-01   1.0820145172666322E+00   1.2289635930638088E+00   2.3759539101220795E+00   1.0743970649306840E-01   4.9804983189827651E-02   6.0268444726302119E+00   5.7482704914298163E+04
    2.0150000000000002E+01   1.7999999999999999E-01   3.9526896931015132E-01   1.0467880013463409E+00   1.2556503404261434E+00   2.4156108204283488E+00   1.0216149844140081E-01   4.9446645610581819E-02   6.0150348136715399E+00   5.7919280131274674E+04
    2.0200000000000006E+01   1.7999999999999999E-01   3.8715531751031623E-01   1.0160688824495221E+00   1.2792222735409349E+00   2.4501722460589388E+00   9.6108496942025584E-02   4.9135628522196571E-02   6.0014708774373959E+00   5.8376299212136830E+04
    2.0250000000000000E+01   1.7999999999999999E-01   3.8009849788766603E-01   9.8966565247530824E-01   1.2997075920576193E+00   2.4798512795953376E+00   8.9643829345032469E-02   4.8868473965647620E-02   5.9861748168670985E+00   5.8779672306342298E+04
    2.0299999999999994E+01   1.7999999999999999E-01   3.7398543724232586E-01   9.6704216876534976E-01   1.3174207577805848E+00   2.5052485042660595E+00   8.2928855594486012E-02   4.8640686692878896E-02   5.9690782114370986E+00   5.9138005305076047E+04
    2.0350000000000009E+01   1.7999999999999999E-01   3.6862614764510615E-01   9.4741751935581253E-01   1.3328805671074744E+00   2.5272071230913093E+00   7.6278901777495661E-02   4.8449280656845284E-02   5.9500489121128446E+00   5.9535522864436512E+04
    2.0399999999999991E+01   1.8000000000000002E-01   3.6378840737661083E-01   9.2987372402820490E-01   1.3467821949338974E+00   2.5467765795167656E+00   7.0087671143760577E-02   4.8278930210883031E-02   5.9279280448727292E+00   5.9963473039815835E+04
    2.0449999999999999E+01   1.7999999999999999E-01   3.5908567398747054E-01   9.1291006284496556E-01   1.3604654057722936E+00   2.5658499468527394E+00   6.5509705963665593E-02   4.8055566020948036E-02   5.8959640662720245E+00   5.9834872304689125E+04
    2.0500000000000000E+01   1.7999999999999999E-01   3.5265481951768118E-01   8.8993716535623180E-01   1.3792141313576731E+00   2.5915509080628820E+00   6.5662828613666790E-02   4.7696160582137444E-02   5.8422453496493079E+00   6.0050688019573623E+04
    2.0000000000000000E+01   2.0999999999999999E-01   4.1866448806606760E-01   1.1682623620273491E+00   1.1121580349387943E+00   2.1949188445491985E+00   1.1898934147574217E-01   6.3051077364526448E-02   6.2508072146150724E+00   6.7114625982686179E+04
    2.0050000000000001E+01   2.1000000000000005E-01   4.0724120538238212E-01   1.1219664566733014E+00   1.1478320925139891E+00   2.2511048643000504E+00   1.1910695520542935E-01   6.2614042544331200E-02   6.2574123268697921E+00   6.7624750863727779E+04
    2.0100000000000001E+01   2.1000000000000002E-01   3.9762704854534892E-01   1.0836068540989767E+00   1.1776909717135167E+00   2.2973836498267612E+00   1.1647257815747879E-01   6.2142683207009199E-02   6.2529629671881715E+00   6.7738589285295733E+04
    2.0150000000000006E+01   2.1000000000000008E-01   3.8890049844276997E-01   1.0492527010459347E+00   1.2047551962985934E+00   2.3387642601721801E+00   1.1187820210681383E-01   6.1704074436158524E-02   6.2449443504069668E+00   6.7964359885667451E+04
    2.0200000000000006E+01   2.0999999999999996E-01   3.8111893172224920E-01   1.0189962461758759E+00   1.2288642236353835E+00   2.3751640377761336E+00   1.0592464729937053E-01   6.1312589542557937E-02   6.2346661310408305E+00   6.8280948239020348E+04
    2.0250000000000000E+01   2.0999999999999999E-01   3.7433001745830186E-01   9.9289206632555471E-01   1.2498956415433948E+00   2.4065560497875440E+00   9.9166690810612523E-02   6.0964241894102461E-02   6.2218811063177935E+00   6.8563771512904670E+04
    2.0300000000000001E+01   2.1000000000000008E-01   3.6842618300764707E-01   9.7041778366803899E-01   1.2681869004248159E+00   2.4335786885066408E+00   9.2024782792588897E-02   6.0651857286701055E-02   6.2062904490208437E+00   6.8792122217133423E+04
    2.0350000000000005E+01   2.0999999999999996E-01   3.6319102818523918E-01   9.5067059597020265E-01   1.2844083138226803E+00   2.4573090034977514E+00   8.5056323325615496E-02   6.0364973201263300E-02   6.1874352277511058E+00   6.9105922094473062E+04
    2.0399999999999999E+01   2.1000000000000002E-01   3.5833936624793733E-01   9.3250920266937953E-01   1.2994941970355751E+00   2.4791570711494280E+00   7.8819733569012215E-02   6.0081178708954353E-02   6.1642176957556147E+00   6.9412036494937551E+04
    2.0449999999999999E+01   2.0999999999999999E-01   3.5345627388746392E-01   9.1431072815464298E-01   1.3149425540944897E+00   2.5012647904153784E+00   7.5108333088030957E-02   5.9705978018613569E-02   6.1295423356146648E+00   6.8907445665440537E+04
    2.0500000000000000E+01   2.0999999999999999E-01   3.4664367764979481E-01   8.8919588625015522E-01   1.3365068947675258E+00   2.5315647348819392E+00   7.6674356896204235E-02   5.9089433150479376E-02   6.0700357330599832E+00   6.9027709705652640E+04
    2.0000000000000000E+01   2.3999999999999999E-01   4.1065619328190639E-01   1.1654909031147174E+00   1.0616976514290444E+00   2.1127588776607729E+00   1.2167118726251816E-01   7.5083583841508983E-02   6.4044943405885970E+00   7.7384734874285088E+04
    2.0050000000000001E+01   2.4000000000000005E-01   3.9995206233472486E-01   1.1210327006255736E+00   1.0975003058196720E+00   2.1705352602252779E+00   1.2367811486141866E-01   7.4639581125926335E-02   6.4167423988960399E+00   7.8288329674838271E+04
    2.0100000000000001E+01   2.3999999999999996E-01   3.9098884919253180E-01   1.0843506993558623E+00   1.1272742456437641E+00   2.2178642204719279E+00   1.2229405689814747E-01   7.4137110163098846E-02   6.4170794552065740E+00   7.8626704742468064E+04
    2.0149999999999999E+01   2.3999999999999999E-01   3.8278161872207100E-01   1.0512271884029407E+00   1.1544147749741889E+00   2.2604708167756216E+00   1.1876753775903545E-01   7.3654267432080270E-02   6.4133835763591458E+00   7.8777809228533937E+04
    2.0200000000000003E+01   2.3999999999999999E-01   3.7537923597511791E-01   1.0217323718769598E+00   1.1787939780853516E+00   2.2983136714059484E+00   1.1323595153181532E-01   7.3206609193265965E-02   6.4067390203494856E+00   7.9147003278495424E+04
    2.0250000000000000E+01   2.3999999999999999E-01   3.6886520585322313E-01   9.9605594234309280E-01   1.2002331327494273E+00   2.3312412186295570E+00   1.0647193011816158E-01   7.2795048455303768E-02   6.3969343071211595E+00   7.9616576197280985E+04
    2.0300000000000008E+01   2.3999999999999996E-01   3.6315297193875051E-01   9.7374155136519358E-01   1.2190766866487548E+00   2.3598909140509399E+00   9.9198680892179841E-02   7.2408512344047632E-02   6.3832447225491356E+00   8.0084975536295693E+04
    2.0349999999999994E+01   2.3999999999999999E-01   3.5800569200815824E-01   9.5378368525876023E-01   1.2361478502128853E+00   2.3855808566887147E+00   9.2205188120115980E-02   7.2029772183161297E-02   6.3649176176325089E+00   8.0638261292015348E+04
    2.0399999999999999E+01   2.3999999999999996E-01   3.5306112938707906E-01   9.3475302863439391E-01   1.2526236022414854E+00   2.4100945741079016E+00   8.6270006159766155E-02   7.1636836383191863E-02   6.3414846870192827E+00   8.1066418561949729E+04
    2.0449999999999999E+01   2.3999999999999999E-01   3.4795438346473584E-01   9.1518541281073051E-01   1.2699528597007792E+00   2.4355301706508885E+00   8.3509573507728918E-02   7.1110702902243764E-02   6.3051014942284365E+00   8.0231738806800393E+04
    2.0500000000000000E+01   2.3999999999999999E-01   3.4075462152034669E-01   8.8791864281998967E-01   1.2943848284069934E+00   2.4706852978575427E+00   8.6686670378378752E-02   7.0237263747910131E-02   6.2416233780562127E+00   8.0296342235713309E+04
    2.0000000000000000E+01   2.7000000000000002E-01   4.0314618614452702E-01   1.1621286682006391E+00   1.0127813635916134E+00   2.0309274652559721E+00   1.2091521484451734E-01   8.6387683623095624E-02   6.5167140072437082E+00   8.6716982186928988E+04
    2.0050000000000001E+01   2.7000000000000002E-01   3.9294194890858786E-01   1.1189827256729266E+00   1.0489273949406595E+00   2.0906378296704862E+00   1.2499451300840513E-01   8.5967119809683051E-02   6.5341889751041506E+00   8.8234273826098870E+04
    2.0100000000000001E+01   2.7000000000000002E-01   3.8455299801813375E-01   1.0839207409293792E+00   1.0785973002975919E+00   2.1389506455982241E+00   1.2509031316020311E-01   8.5437972601723436E-02   6.5378048544422214E+00   8.9217298252001565E+04
    2.0149999999999999E+01   2.7000000000000002E-01   3.7694485719940696E-01   1.0524456408339020E+00   1.1055878363272480E+00   2.1823835892763328E+00   1.2277296019986321E-01   8.4901261289437591E-02   6.5361891459954791E+00   8.9561423656993327E+04
    2.0200000000000006E+01   2.7000000000000002E-01   3.7004124887831852E-01   1.0242145670655931E+00   1.1300322661808715E+00   2.2213248798746372E+00   1.1808720323504654E-01   8.4380889305254836E-02   6.5308976528069449E+00   8.9938466089730267E+04
    2.0250000000000000E+01   2.7000000000000002E-01   3.6384436026160916E-01   9.9914539318691276E-01   1.1519103268808766E+00   2.2558447482313664E+00   1.1159037987335010E-01   8.3886635243730148E-02   6.5224233541353307E+00   9.0624244297692057E+04
    2.0300000000000001E+01   2.7000000000000002E-01   3.5830003500116070E-01   9.7691386405191316E-01   1.1715105543101376E+00   2.2864642162734850E+00   1.0439099056008375E-01   8.3400942700530847E-02   6.5094829829621288E+00   9.1438702977172230E+04
    2.0350000000000001E+01   2.7000000000000002E-01   3.5319642514069743E-01   9.5657940913056183E-01   1.1897039286726898E+00   2.3145784730325309E+00   9.7578723041532076E-02   8.2902013192721863E-02   6.4909299295606591E+00   9.2294615083784010E+04
    2.0399999999999999E+01   2.7000000000000002E-01   3.4812196587508210E-01   9.3652538395323059E-01   1.2078345856499375E+00   2.3422355731088245E+00   9.2288447700924744E-02   8.2376686452341349E-02   6.4670308855757748E+00   9.2850908911934326E+04
    2.0449999999999999E+01   2.7000000000000002E-01   3.4276657571764513E-01   9.1549411022274674E-01   1.2272113661586364E+00   2.3713556389634745E+00   9.0579542068422988E-02   8.1686848819700064E-02   6.4287704500179448E+00   9.1728365740015754E+04
    2.0500000000000000E+01   2.7000000000000002E-01   3.3514882445890698E-01   8.8597544740223588E-01   1.2546532597530864E+00   2.4117110181003016E+00   9.5570840047599318E-02   8.0553520613206794E-02   6.3621887686533922E+00   9.1805333118135779E+04
    2.0000000000000000E+01   2.9999999999999999E-01   3.9624925895664731E-01   1.1587616300477308E+00   9.6521938056869694E-01   1.9494207523673748E+00   1.1722209063798934E-01   9.6922430978523808E-02   6.6135384194243798E+00   9.4630874405150564E+04
    2.0050000000000004E+01   3.0000000000000010E-01   3.8639468166237889E-01   1.1164898339889322E+00   1.0019847231130401E+00   2.0115007441784081E+00   1.2319601166349892E-01   9.6537724546683079E-02   6.6352059245982948E+00   9.6180160042833522E+04
    2.0100000000000001E+01   2.9999999999999999E-01   3.7843884947314771E-01   1.0826832475357653E+00   1.0317926931231260E+00   2.0611527962386376E+00   1.2496259369833639E-01   9.5980425429010183E-02   6.6415410524201413E+00   9.7184945743598961E+04
    2.0149999999999999E+01   2.9999999999999999E-01   3.7129614791924320E-01   1.0525617246281831E+00   1.0587209896941085E+00   2.1055173457462959E+00   1.2382788602373350E-01   9.5390727146178592E-02   6.6421311940452075E+00   9.7452828692650030E+04
    2.0200000000000003E+01   2.9999999999999999E-01   3.6491087849045251E-01   1.0258288893377816E+00   1.0829939906906252E+00   2.1451350516819256E+00   1.2011137359104467E-01   9.4793737841123937E-02   6.6378136706635704E+00   9.7616498965494218E+04
    2.0250000000000000E+01   2.9999999999999999E-01   3.5911711782753664E-01   1.0017596345002933E+00   1.1051099493526619E+00   2.1809176448403291E+00   1.1420886255567707E-01   9.4199704224999098E-02   6.6291338041281467E+00   9.7983592975455773E+04
    2.0300000000000001E+01   2.9999999999999999E-01   3.5379407509549821E-01   9.7981589330505359E-01   1.1254930487226542E+00   2.2135711161379454E+00   1.0747045781052281E-01   9.3598222636031306E-02   6.6155347199042769E+00   9.8450532479436413E+04
    2.0350000000000001E+01   2.9999999999999999E-01   3.4872941059895207E-01   9.5908624792080199E-01   1.1449737865574479E+00   2.2444227298185697E+00   1.0113394263288929E-01   9.2974444259924682E-02   6.5964269846310861E+00   9.8925504651648647E+04