 variables = x,y,rho,p,mach,u,v,k,w,vis
 zone t ="100000",i=          11 ,j=          11 ,f=point
    1.0000000000000000E+01   0.0000000000000000E+00   8.1048975713226268E-01   2.5957306578536254E+00   6.5157619726722749E-01   1.3793199386149237E+00  -1.0701698946293532E-18   7.6632508802652730E-07   6.9373167761937887E-02   9.5200112202570779E+01
    1.0050000000000001E+01   0.0000000000000000E+00   7.6197903062421957E-01   2.3835822303164891E+00   7.4553681330515931E-01   1.5599897377873713E+00   1.1383013221214942E-18   1.0245914537649884E-06   6.8968057794427176E-02   1.3842186454077731E+02
    1.0100000000000000E+01   0.0000000000000000E+00   7.2448892643494767E-01   2.2202127237167781E+00   8.1935450095734219E-01   1.6968641114127716E+00  -5.9860248123908661E-19   1.2240780943210772E-06   6.8942521109879598E-02   9.4017215322858036E+01
    1.0150000000000000E+01   0.0000000000000000E+00   6.8538619825784575E-01   2.0540795781342980E+00   8.9418038552655033E-01   1.8312689448885591E+00  -6.3275401532239322E-19   1.3429810516193624E-06   6.9337181659913621E-02   4.9272017857439330E+01
    1.0199999999999999E+01   0.0000000000000000E+00   6.4740135411821909E-01   1.8963843541317384E+00   9.6645120520410466E-01   1.9567830453970321E+00   0.0000000000000000E+00   1.3851652212872799E-06   6.9880711190831224E-02   4.3180136971307086E+01
    1.0250000000000000E+01   0.0000000000000000E+00   6.1262891560562338E-01   1.7552005607486829E+00   1.0330523026158305E+00   2.0686300487257885E+00   0.0000000000000000E+00   1.3931060310097403E-06   7.0497610409990655E-02   4.0794771628146194E+01
    1.0300000000000001E+01   0.0000000000000000E+00   5.8228325721630370E-01   1.6345714378920619E+00   1.0919392787052316E+00   2.1644218072725065E+00   5.5859523301530391E-19   1.4005581548698675E-06   7.1142709191374234E-02   3.8214978160918221E+01
    1.0350000000000000E+01   0.0000000000000000E+00   5.5600174158275406E-01   1.5321611082292663E+00   1.1437389980370263E+00   2.2462523160377552E+00  -1.9499977992859114E-19   1.4081634155281031E-06   7.1758421894768082E-02   3.8567930572772667E+01
    1.0399999999999999E+01   0.0000000000000000E+00   5.3332920253089977E-01   1.4452986171609377E+00   1.1892855772617923E+00   2.3162994072502285E+00  -6.0986844560945739E-19   1.4177771966620398E-06   7.2444009404332682E-02   3.9186821882258684E+01
    1.0450000000000001E+01   0.0000000000000000E+00   5.1542571413577365E-01   1.3777574235257157E+00   1.2259487301792800E+00   2.3714806366816168E+00  -4.2070162304704240E-19   1.4221500390943138E-06   7.2827665619765197E-02   3.9918952750834869E+01
    1.0500000000000000E+01   0.0000000000000000E+00   4.9685465892667513E-01   1.3089708246321619E+00   1.2643056317848167E+00   2.4278350627307561E+00   2.1821314402639203E-19   1.4218816629823893E-06   7.3013063853145099E-02   4.0242396635084106E+01
    1.0000000000000000E+01   4.2500000000000038E-02   8.1486580756065408E-01   2.6105904839570191E+00   6.4992601855848353E-01   1.3745373215731667E+00  -6.3883914374955331E-02   3.1382090519844253E-06   6.0116550929515712E-02   5.9544887267742672E+02
    1.0050000000000002E+01   4.2500000000000024E-02   7.6424650781405556E-01   2.3891239366898835E+00   7.4796382505815606E-01   1.5635954131298648E+00  -5.4396441715564146E-02   4.1276406584986542E-06   6.4707360643081024E-02   7.1763050471798681E+02
    1.0100000000000000E+01   4.2500000000000024E-02   7.2498487225705821E-01   2.2184721440891413E+00   8.2467336463151530E-01   1.7061374358455128E+00  -3.9967090473983356E-02   4.8551167019859419E-06   6.8344408293375597E-02   3.1513046063042503E+02
    1.0150000000000000E+01   4.2500000000000024E-02   6.8473110137093218E-01   2.0478426607184543E+00   9.0124737350546891E-01   1.8436564237557584E+00  -2.3188278584250280E-02   5.2692244849172788E-06   7.0742103407825607E-02   2.5896011701423913E+02
    1.0199999999999996E+01   4.2500000000000031E-02   6.4640491411766621E-01   1.8891043158092911E+00   9.7386462259589957E-01   1.9695030470598760E+00  -7.5476819060540943E-03   5.4097825427242681E-06   7.1919024307838600E-02   2.0678044221892264E+02
    1.0250000000000000E+01   4.2500000000000010E-02   6.1156770930227466E-01   1.7480138201269289E+00   1.0403426316591105E+00   2.0807443641935834E+00   4.9810570677050253E-03   5.4276179075195380E-06   7.2615078082423276E-02   1.7019533904056161E+02
    1.0300000000000002E+01   4.2500000000000010E-02   5.8121979963235915E-01   1.6276816517160959E+00   1.0990654758504343E+00   2.1758943879448416E+00   1.3598448852746321E-02   5.4305032661710622E-06   7.3351335566987211E-02   1.4100849857942208E+02
    1.0350000000000000E+01   4.2500000000000017E-02   5.5516606270201740E-01   1.5264360783354805E+00   1.1502534159399440E+00   2.2564405313908624E+00   1.8557440282862596E-02   5.4240039212513259E-06   7.4069683896981819E-02   1.2152402784226126E+02
    1.0399999999999997E+01   4.2500000000000010E-02   5.3272170444368194E-01   1.4406695094323212E+00   1.1952015537907945E+00   2.3253265055072401E+00   2.0403371599812713E-02   5.4207282615893634E-06   7.4865591231849646E-02   1.1141796679087334E+02
    1.0450000000000005E+01   4.2500000000000010E-02   5.1494627841925467E-01   1.3737834528533115E+00   1.2314769883304244E+00   2.3797543474940412E+00   2.0244984954395320E-02   5.3961646584120676E-06   7.5321397350837649E-02   1.1655990358351885E+02
    1.0500000000000004E+01   4.2499999999999996E-02   4.9623627624546074E-01   1.3046718112725844E+00   1.2699783354998886E+00   2.4361378129253453E+00   2.0674396360126673E-02   5.3272223190057494E-06   7.5522591359984931E-02   1.2450776143391244E+02
    1.0000000000000000E+01   8.5000000000000020E-02   8.1602396356998774E-01   2.6113930301084864E+00   6.5438442086275073E-01   1.3774932015528556E+00  -1.4030926015290940E-01   1.3129967612978441E-05   8.9688538837326207E-02   1.6876478857040524E+03
    1.0050000000000001E+01   8.5000000000000034E-02   7.6157066461572354E-01   2.3735029870365985E+00   7.5931297574877188E-01   1.5815396311573626E+00  -1.1626574930166336E-01   1.7070117929396297E-05   1.1298442275690583E-01   1.3207192628347502E+03
    1.0100000000000000E+01   8.5000000000000020E-02   7.2012555557908142E-01   2.1942460022905563E+00   8.3948641314727090E-01   1.7315705195070976E+00  -8.2280565395697128E-02   1.9815664674607955E-05   1.2950288048313555E-01   1.1773571236588298E+03
    1.0150000000000004E+01   8.5000000000000034E-02   6.7917689787366753E-01   2.0214607535631330E+00   9.1698231774941830E-01   1.8709003898242444E+00  -4.5421424127714327E-02   2.1289234076687093E-05   1.3872843826778741E-01   1.4399260856131216E+03
    1.0199999999999999E+01   8.5000000000000034E-02   6.4127636518686093E-01   1.8652084259743735E+00   9.8861633423723216E-01   1.9945570204928416E+00  -1.2045281088665691E-02   2.1759007153915148E-05   1.4218861990838774E-01   1.3554838683148025E+03
    1.0250000000000004E+01   8.5000000000000006E-02   6.0754419119366143E-01   1.7291808635663397E+00   1.0529422960842254E+00   2.1014713028342906E+00   1.3688388989256190E-02   2.1780478815534203E-05   1.4313785372432508E-01   1.2546992565483606E+03
    1.0299999999999997E+01   8.4999999999999992E-02   5.7843645220914397E-01   1.6141881898484436E+00   1.1092644503580680E+00   2.1920719950555809E+00   3.0566738403080791E-02   2.1687072171655165E-05   1.4353027390504697E-01   1.1701949765711756E+03
    1.0349999999999998E+01   8.5000000000000034E-02   5.5350146559658175E-01   1.5175766022568911E+00   1.1582515089690115E+00   2.2686679071639189E+00   4.0561932175027397E-02   2.1520233848683033E-05   1.4354246492680631E-01   1.1012756707119725E+03
    1.0399999999999999E+01   8.4999999999999992E-02   5.3194114882781607E-01   1.4353937078078003E+00   1.2013887563120018E+00   2.3344747691634242E+00   4.4454153657690232E-02   2.1347810877743251E-05   1.4353980041053127E-01   1.0477930470791557E+03
    1.0450000000000001E+01   8.4999999999999992E-02   5.1456402807888146E-01   1.3701470335102537E+00   1.2367908604678339E+00   2.3874241490185106E+00   4.4279036227273569E-02   2.1092512893914061E-05   1.4291219303286154E-01   1.0169172010138742E+03
    1.0500000000000000E+01   8.4999999999999992E-02   4.9555667654908681E-01   1.3000848571008983E+00   1.2758665658930901E+00   2.4444516992204384E+00   4.5577813506166368E-02   2.0586828385148819E-05   1.4100305909843280E-01   9.8382191053681731E+02
    1.0000000000000000E+01   1.2750000000000000E-01   8.0904777424538998E-01   2.5796747548206316E+00   6.6835672805923407E-01   1.3946973606795081E+00  -2.1707312425719083E-01   4.0204017909907806E-05   2.4187287422846210E-01   2.3742754268079157E+03
    1.0050000000000001E+01   1.2750000000000000E-01   7.4966042835980384E-01   2.3213352273187473E+00   7.8206854508435575E-01   1.6185774261844124E+00  -1.7488625033103619E-01   5.1554982610033265E-05   3.0901040333658475E-01   1.4255246096949074E+03
    1.0100000000000000E+01   1.2750000000000000E-01   7.0712807060822058E-01   2.1387775349926708E+00   8.6403058284086798E-01   1.7736671096115026E+00  -1.1812624287601656E-01   5.8998503000950496E-05   3.5367107568700795E-01   1.8764122371773340E+03
    1.0149999999999997E+01   1.2750000000000000E-01   6.6731080942859444E-01   1.9719162185968302E+00   9.3956528361806135E-01   1.9096668360991844E+00  -6.1232126544227473E-02   6.2724132520705162E-05   3.7669318791205725E-01   2.4633392265094990E+03
    1.0199999999999996E+01   1.2750000000000000E-01   6.3162881777472513E-01   1.8257387426821532E+00   1.0073031419365246E+00   2.0259598107293519E+00  -1.2588585530836043E-02   6.3786325661021996E-05   3.8421951422524353E-01   2.3597371196422541E+03
    1.0250000000000000E+01   1.2750000000000000E-01   6.0080391115440901E-01   1.7021071678959849E+00   1.0663045460337699E+00   2.1231837474750637E+00   2.3242920054399336E-02   6.3591630688281461E-05   3.8437913220030201E-01   2.2358235373010734E+03
    1.0300000000000002E+01   1.2750000000000003E-01   5.7422963616261125E-01   1.5975347999856024E+00   1.1178594422904982E+00   2.2054256038786297E+00   4.6259350646640322E-02   6.2951420135053200E-05   3.8188379476253254E-01   2.1281879576114052E+03
    1.0350000000000001E+01   1.2750000000000000E-01   5.5133519834615297E-01   1.5090206511620849E+00   1.1629597650317096E+00   2.2755185393577775E+00   6.0143759431592149E-02   6.2064222266068595E-05   3.7787753184588263E-01   2.0348646686678946E+03
    1.0400000000000002E+01   1.2750000000000000E-01   5.3132586614248822E-01   1.4328449812461832E+00   1.2030350436434336E+00   2.3364614864491142E+00   6.5938133601912877E-02   6.1131829204702306E-05   3.7354403143676940E-01   1.9529932120140747E+03
    1.0450000000000001E+01   1.2750000000000000E-01   5.1455113098371330E-01   1.3698904433937549E+00   1.2372175493091044E+00   2.3875453096070292E+00   6.6306102917010973E-02   5.9961166651971002E-05   3.6769835764971343E-01   1.8837505210751758E+03
    1.0500000000000000E+01   1.2750000000000000E-01   4.9495883500632665E-01   1.2977091356148134E+00   1.2775176673804500E+00   2.4462529617408846E+00   6.9674908061319846E-02   5.7851725123571823E-05   3.5657134016719688E-01   1.8016731013138397E+03
    1.0000000000000000E+01   1.7000000000000001E-01   7.9863786785029145E-01   2.5315176489874878E+00   6.9034179279157692E-01   1.4208727727152712E+00  -3.0543938416275573E-01   9.9468412320448526E-05   5.8378590969430522E-01   2.6783994959290903E+03
    1.0050000000000001E+01   1.7000000000000004E-01   7.3046518016707840E-01   2.2371565888137765E+00   8.2017848882584832E-01   1.6806316237042573E+00  -2.4088645159379915E-01   1.2526498796412743E-04   7.3557602476277029E-01   1.7716465187428100E+03
    1.0100000000000001E+01   1.6999999999999996E-01   6.8704976850508481E-01   2.0536768850106646E+00   9.0413251830839114E-01   1.8425716936435756E+00  -1.5536231894820496E-01   1.4142123403161180E-04   8.3268907442495033E-01   1.9922729782687436E+03
    1.0150000000000004E+01   1.6999999999999996E-01   6.5050603100211579E-01   1.9023888449217048E+00   9.7390868168896272E-01   1.9687875602862099E+00  -7.5265883957767302E-02   1.4887822774312326E-04   8.7888879202012160E-01   2.4929579135388003E+03
    1.0199999999999999E+01   1.7000000000000001E-01   6.1874812170298221E-01   1.7735337344679596E+00   1.0345943820491328E+00   2.0721756455262619E+00  -1.0684935721755807E-02   1.5061298075516488E-04   8.9131637596666569E-01   2.3653588267303953E+03
    1.0250000000000000E+01   1.6999999999999996E-01   5.9199422528227186E-01   1.6670382637274497E+00   1.0859893502715370E+00   2.1557508881654721E+00   3.4634741046142704E-02   1.4957894733689367E-04   8.8740800519030938E-01   2.2572347351352878E+03
    1.0300000000000001E+01   1.6999999999999998E-01   5.6869230959342254E-01   1.5758225978275455E+00   1.1312977469072167E+00   2.2271230343396295E+00   6.3047167243535845E-02   1.4742135136046173E-04   8.7679454846888094E-01   2.1627775310266029E+03
    1.0350000000000001E+01   1.6999999999999998E-01   5.4839897594027343E-01   1.4976094421961701E+00   1.1713272051086092E+00   2.2887624028457774E+00   7.9752011024109656E-02   1.4463927714169209E-04   8.6238226861579836E-01   2.0802435954674320E+03
    1.0400000000000000E+01   1.6999999999999998E-01   5.3026718034976006E-01   1.4287124903777160E+00   1.2075862095119976E+00   2.3435939877720222E+00   8.6962907144396612E-02   1.4167553506336375E-04   8.4676836934246735E-01   2.0064124673957476E+03
    1.0450000000000001E+01   1.6999999999999998E-01   5.1409813227668655E-01   1.3680971539128499E+00   1.2404257956541975E+00   2.3925063975396430E+00   8.8541345947727612E-02   1.3814892532361132E-04   8.2762433897517096E-01   1.9404691516040016E+03
    1.0500000000000000E+01   1.6999999999999998E-01   4.9334705070120655E-01   1.2917708983483003E+00   1.2829323951510379E+00   2.4540398713443516E+00   9.6171553398042772E-02   1.3203135343095853E-04   7.9352816457420361E-01   1.8557475927399737E+03
    1.0000000000000000E+01   2.1249999999999999E-01   7.8160205911175185E-01   2.4559416482419021E+00   7.2315815562848773E-01   1.4591211023437867E+00  -4.0817847792988288E-01   2.0981314348614912E-04   1.2148530207952426E+00   2.9610111580898424E+03
    1.0050000000000001E+01   2.1249999999999999E-01   6.9908150908623801E-01   2.1055612090823441E+00   8.7883921169599544E-01   1.7766358995702669E+00  -3.1188625213161081E-01   2.5985874150512571E-04   1.5202534980058571E+00   2.3358651428093635E+03
    1.0100000000000000E+01   2.1249999999999997E-01   6.5619331517424506E-01   1.9301535767579132E+00   9.6084430002798438E-01   1.9402579986674702E+00  -1.8809666974489270E-01   2.9310352871775525E-04   1.7255283846180482E+00   2.1624576225461196E+03
    1.0150000000000000E+01   2.1249999999999999E-01   6.2706313812738035E-01   1.8121269131284641E+00   1.0145424195057209E+00   2.0385990937866745E+00  -8.3197106913678293E-02   3.0929324556068798E-04   1.8223592408532900E+00   2.2341345606442228E+03
    1.0199999999999999E+01   2.1250000000000002E-01   6.0139518912760614E-01   1.7093327967549679E+00   1.0634523925668500E+00   2.1211222390819935E+00  -4.8616705777507754E-03   3.1396388989030159E-04   1.8479718939049770E+00   2.1419312361336779E+03
    1.0250000000000000E+01   2.1249999999999999E-01   5.8024523376555659E-01   1.6256272892596348E+00   1.1045994078735388E+00   2.1869553664140744E+00   4.7069542055011418E-02   3.1258937565866444E-04   1.8378226885148128E+00   2.1039583429436552E+03
    1.0300000000000001E+01   2.1249999999999994E-01   5.6122541630322009E-01   1.5512145954985084E+00   1.1421881263545814E+00   2.2452952415681731E+00   7.8994581797460481E-02   3.0839320487031609E-04   1.8116543263373950E+00   2.0997981929911548E+03
    1.0350000000000000E+01   2.1249999999999997E-01   5.4402582094319940E-01   1.4847120499094781E+00   1.1767198010922204E+00   2.2979293979128204E+00   9.7527042511601658E-02   3.0254413308739459E-04   1.7766241423637821E+00   2.0820619231404626E+03
    1.0399999999999999E+01   2.1249999999999994E-01   5.2790805709441035E-01   1.4231761083380465E+00   1.2094847767338348E+00   2.3471770104056695E+00   1.0650208725108355E-01   2.9579062922188508E-04   1.7373542509903994E+00   2.0315252376502058E+03
    1.0449999999999999E+01   2.1249999999999997E-01   5.1219491442261389E-01   1.3639870828816301E+00   1.2418625005645150E+00   2.3951800583553577E+00   1.1100399637286819E-01   2.8753611809662695E-04   1.6893664204296908E+00   1.9536311130013034E+03
    1.0500000000000000E+01   2.1249999999999997E-01   4.8948483751405347E-01   1.2802320717970175E+00   1.2890648981845265E+00   2.4629323258633500E+00   1.2618370042422494E-01   2.7260945035019788E-04   1.6040270777318426E+00   1.8628637929816905E+03
    1.0000000000000000E+01   2.5500000000000000E-01   7.5480665892505749E-01   2.3471859869710894E+00   7.6487335269744061E-01   1.5030972451516964E+00  -5.2755835739767787E-01   3.9388447078242856E-04   2.2759665187465501E+00   2.9374667956135272E+03
    1.0050000000000001E+01   2.5500000000000000E-01   6.5142951384232839E-01   1.9229981420096176E+00   9.4651491364283757E-01   1.8841364419769282E+00  -3.8424572777213684E-01   4.9224741635680973E-04   2.9295170436950961E+00   2.2913190069338320E+03
    1.0100000000000001E+01   2.5500000000000000E-01   6.1106666281542688E-01   1.7699801358414227E+00   1.0103335532939037E+00   2.0229421461570238E+00  -2.1359151470184698E-01   5.7160347963590061E-04   3.4452213844436681E+00   1.8364633930203004E+03
    1.0150000000000000E+01   2.5500000000000000E-01   5.9432088466059252E-01   1.7062275971632395E+00   1.0353079758814685E+00   2.0736852469296712E+00  -8.5679513262058485E-02   6.1567104022755917E-04   3.7022486067244493E+00   1.6761307499333152E+03
    1.0199999999999999E+01   2.5500000000000000E-01   5.7711735869451353E-01   1.6389633609823073E+00   1.0671419191317035E+00   2.1278399890100195E+00   2.1987502266917064E-03   6.3721588357686543E-04   3.7988970741030612E+00   1.6855448511483528E+03
    1.0250000000000000E+01   2.5500000000000000E-01   5.6294440353707520E-01   1.5822998531907970E+00   1.0965650019173159E+00   2.1745083056534034E+00   5.7576947915249171E-02   6.4388473107359647E-04   3.8036460223565314E+00   1.7299392532811503E+03
    1.0300000000000001E+01   2.5500000000000000E-01   5.4881264865060364E-01   1.5256820251190242E+00   1.1274268379326606E+00   2.2222867351982996E+00   9.2057541661528366E-02   6.4260441604992613E-04   3.7636987441081495E+00   1.8041792624057875E+03
    1.0350000000000000E+01   2.5500000000000000E-01   5.3511146464696768E-01   1.4710157493621046E+00   1.1582874948405699E+00   2.2695344551277059E+00   1.1199127134334229E-01   6.3563151762687908E-04   3.6947965516018120E+00   1.8567316918075485E+03
    1.0399999999999997E+01   2.5500000000000000E-01   5.2108115452498405E-01   1.4156370466675314E+00   1.1902721317045140E+00   2.3179800064703993E+00   1.2336165150570381E-01   6.2468651762462692E-04   3.6081551038693527E+00   1.8626158652975585E+03
    1.0450000000000001E+01   2.5500000000000000E-01   5.0563732958380836E-01   1.3557299320578675E+00   1.2254522289506955E+00   2.3704475273460894E+00   1.3289721673315999E-01   6.0843323286378839E-04   3.4960917506861486E+00   1.7709129482960934E+03
    1.0500000000000000E+01   2.5500000000000000E-01   4.8017236412360165E-01   1.2596886764373021E+00   1.2829007032117075E+00   2.4526430415647740E+00   1.6053773605613711E-01   5.7394297089320614E-04   3.2858295318403465E+00   1.7563384776197393E+03
    1.0000000000000000E+01   2.9749999999999999E-01   7.1113427129946005E-01   2.1921643345337833E+00   7.9744450557915458E-01   1.5157912744532966E+00  -6.5489088232635073E-01   6.8121398425653225E-04   4.0269178481577868E+00   2.1147217130453250E+03
    1.0050000000000001E+01   2.9749999999999999E-01   5.8056885401166580E-01   1.6900616006567575E+00   9.8935843344296104E-01   1.9476556549088984E+00  -4.3937732576675254E-01   8.8972725132241133E-04   5.6649352511957227E+00   1.4816701951321197E+03
    1.0100000000000000E+01   2.9749999999999999E-01   5.4806143731712342E-01   1.5920075435815377E+00   1.0070466595985585E+00   2.0184219439132240E+00  -2.2885373974343179E-01   1.0942393563418487E-03   7.0878828003219274E+00   1.2531168598194563E+03
    1.0150000000000000E+01   2.9749999999999999E-01   5.4739257823023146E-01   1.5968776722900491E+00   9.9333283365303215E-01   2.0063757266353432E+00  -8.6324368011165109E-02   1.2372018987771840E-03   7.8458652099253472E+00   1.3094673395775667E+03
    1.0199999999999999E+01   2.9749999999999999E-01   5.4002336114274618E-01   1.5686901047460753E+00   1.0063016234589606E+00   2.0300715189943834E+00   5.5329010652464530E-03   1.3478882518835073E-03   8.2441838857492531E+00   1.4317260172857325E+03
    1.0250000000000000E+01   2.9749999999999999E-01   5.3289989214929201E-01   1.5374039424065202E+00   1.0259158616365502E+00   2.0615426550957312E+00   6.1029298276574384E-02   1.4222437656785504E-03   8.3874535713090417E+00   1.5326430911542343E+03
    1.0300000000000001E+01   2.9749999999999999E-01   5.2371019622716342E-01   1.4963596359220395E+00   1.0536611992191431E+00   2.1057035558344874E+00   9.6508288440890419E-02   1.4706702415315535E-03   8.3907764931683495E+00   1.6178853637286190E+03
    1.0350000000000000E+01   2.9749999999999999E-01   5.1379721519186194E-01   1.4518507100859608E+00   1.0850192308904052E+00   2.1553294472865878E+00   1.1795234967778265E-01   1.4943331322807127E-03   8.2855123569443645E+00   1.6895169001347244E+03
    1.0399999999999997E+01   2.9749999999999999E-01   5.0229079869525917E-01   1.4012198308877828E+00   1.1207866017444470E+00   2.2113251496205613E+00   1.3304469672032668E-01   1.4958357300559014E-03   8.0989757682158441E+00   1.7413011041775108E+03
    1.0450000000000001E+01   2.9749999999999999E-01   4.8794556876890194E-01   1.3403486134651579E+00   1.1631671129577033E+00   2.2763795895682999E+00   1.4968935627069760E-01   1.4656405231083668E-03   7.7928815728079304E+00   1.6749917817124372E+03
    1.0500000000000000E+01   2.9749999999999999E-01   4.6016666768745101E-01   1.2280313487739394E+00   1.2401602702099956E+00   2.3882950820191775E+00   1.9540944655810230E-01   1.3726022511188047E-03   7.2050626212337283E+00   1.7306148776950431E+03
    1.0000000000000000E+01   3.3999999999999997E-01   6.4553741159177591E-01   1.9923743716176570E+00   7.8456523022106039E-01   1.4247893442878301E+00  -7.7718044912313089E-01   1.1060626886696099E-03   7.0686815155155331E+00   1.1307992903542199E+03
    1.0049999999999997E+01   3.4000000000000002E-01   4.9143925244789077E-01   1.4413358937143994E+00   9.5502720697650623E-01   1.8859616322669566E+00  -4.3902147344707210E-01   1.5629559311282316E-03   1.1791981681150725E+01   9.3468089551772505E+02
    1.0099999999999996E+01   3.3999999999999997E-01   4.8215153534083388E-01   1.4444859840683808E+00   8.9959527157507901E-01   1.8301257561890500E+00  -2.1785308934355396E-01   2.0173578009479547E-03   1.5268853772744459E+01   1.0553480708629077E+03
    1.0149999999999997E+01   3.3999999999999997E-01   4.9516007433944270E-01   1.5058859498259511E+00   8.4222986822250567E-01   1.7368637648903393E+00  -8.1794856135583710E-02   2.4286776381546391E-03   1.7113018957327611E+01   1.2610292170667244E+03
    1.0199999999999999E+01   3.3999999999999997E-01   4.9636248321663712E-01   1.5106929862879039E+00   8.3518559380052482E-01   1.7248026111717301E+00   3.2641048878602370E-03   2.8068375895674491E-03   1.8076869595962872E+01   1.4358412330031799E+03
    1.0250000000000000E+01   3.3999999999999997E-01   4.9462806908696960E-01   1.4994777910965640E+00   8.4952645199557586E-01   1.7500998821433573E+00   5.2383292853655790E-02   3.0999798834224481E-03   1.8404157311787451E+01   1.5714678560480968E+03
    1.0299999999999999E+01   3.3999999999999997E-01   4.8866351362736915E-01   1.4696308798261528E+00   8.7844228269864055E-01   1.8012805129941052E+00   8.4474873058705879E-02   3.3279766937205765E-03   1.8452737012210669E+01   1.6636046451380730E+03
    1.0350000000000000E+01   3.3999999999999997E-01   4.8125670573640278E-01   1.4318408928614819E+00   9.1583586005103423E-01   1.8669100931881970E+00   1.0559242893933155E-01   3.4772666538167765E-03   1.8241634304506750E+01   1.7288736201852571E+03
    1.0399999999999997E+01   3.3999999999999997E-01   4.7110597520846753E-01   1.3819249746024906E+00   9.6278292871946580E-01   1.9478861719105180E+00   1.2419933819533283E-01   3.5500176937836151E-03   1.7830158819770787E+01   1.7698161043953046E+03
    1.0450000000000001E+01   3.3999999999999997E-01   4.5610879367588408E-01   1.3124130943654087E+00   1.0235166585534399E+00   2.0494978455013864E+00   1.5065506882541502E-01   3.5153737603757294E-03   1.7109618935043624E+01   1.7297987593653106E+03
    1.0500000000000000E+01   3.3999999999999997E-01   4.2635977996087221E-01   1.1815535644090471E+00   1.1330806529738320E+00   2.2203510856634505E+00   2.2013366045973382E-01   3.3078524435287112E-03   1.5695141074603598E+01   1.8022441622116853E+03
    1.0000000000000000E+01   3.8249999999999995E-01   5.6141494122925728E-01   1.7405523637096127E+00   7.2225942542453647E-01   1.1793058645327172E+00  -9.1272916362566903E-01   1.6662692788340192E-03   1.3036036754722065E+01   6.4696081492177234E+02
    1.0050000000000001E+01   3.8249999999999995E-01   3.9885367189054838E-01   1.1889955352592563E+00   8.3590372057958817E-01   1.6646555901734084E+00  -3.7134724155497056E-01   2.7471920697388192E-03   3.0548812099515025E+01   5.3613255186790775E+02
    1.0100000000000000E+01   3.8249999999999995E-01   4.3742412736200398E-01   1.3580192643122797E+00   6.6514924294341016E-01   1.3795232893260363E+00  -1.3895178303938577E-01   3.6697672879903599E-03   3.8955711139659208E+01   7.2891034350354198E+02
    1.0149999999999999E+01   3.8249999999999995E-01   4.6074624262061603E-01   1.4540381310370716E+00   5.7710699668834953E-01   1.2122020382339125E+00  -4.8451910816129228E-02   4.6200043048720569E-03   4.2477357257075639E+01   9.8237879923758771E+02
    1.0199999999999999E+01   3.8249999999999995E-01   4.6666780559848037E-01   1.4765476238299160E+00   5.5704319449323447E-01   1.1724989908249903E+00   2.6597260363506598E-04   5.5507927024929194E-03   4.3873110453138153E+01   1.1663353182871911E+03
    1.0250000000000000E+01   3.8249999999999995E-01   4.6717074685961202E-01   1.4759457505043958E+00   5.7004817325396095E-01   1.1986774237018107E+00   2.6994260089953787E-02   6.4160678614783922E-03   4.4383370944941419E+01   1.2938804467581360E+03
    1.0299999999999997E+01   3.8249999999999995E-01   4.6155431231064481E-01   1.4510473964933934E+00   6.0026974141744838E-01   1.2586661930871221E+00   4.4710830231780477E-02   7.3005959847730782E-03   4.5124022075378399E+01   1.3798602274150885E+03
    1.0350000000000000E+01   3.8249999999999995E-01   4.5365534725708501E-01   1.4150493560415760E+00   6.4327080057541797E-01   1.3431920221330536E+00   5.7373853095242060E-02   8.1537365651043608E-03   4.5973683653898597E+01   1.4336881327476306E+03
    1.0400000000000000E+01   3.8249999999999995E-01   4.4169848032504561E-01   1.3612533556178055E+00   7.0179425541481721E-01   1.4562423710571166E+00   7.0492425384308985E-02   8.9351870159415994E-03   4.6920655493358773E+01   1.4483221504525241E+03
    1.0450000000000003E+01   3.8249999999999995E-01   4.2220429778601298E-01   1.2755540838276036E+00   7.8641899235410573E-01   1.6148551618268867E+00   9.2697773784439677E-02   9.6266145362616760E-03   4.8251517317301932E+01   1.3878612343881243E+03
    1.0500000000000000E+01   3.8249999999999995E-01   3.8697882350080437E-01   1.1245383516550667E+00   9.3246994628882074E-01   1.8701464744398029E+00   1.9276656732813785E-01   1.0132584152740867E-02   4.5602785218444900E+01   1.6496713020892262E+03
    1.0000000000000000E+01   4.2499999999999999E-01   5.4299245720845768E-01   1.7080760409058047E+00   4.0284079083369256E-01   2.6982359856850824E-01  -7.8752711725448354E-01   1.2336293711507798E-03   6.6746175087948290E+00   3.5614793901268092E+02
    1.0050000000000001E+01   4.2499999999999999E-01   3.5303368955436126E-01   1.0565855645487046E+00   0.0000000000000000E+00   0.0000000000000000E+00   0.0000000000000000E+00   1.5355505785497500E-19   1.6394905502212547E+00   3.5527136788005009E-15
    1.0100000000000000E+01   4.2499999999999999E-01   4.2230767452150075E-01   1.3298693893282589E+00   1.5657163130885880E-17   3.2861794007269225E-17   0.0000000000000000E+00   0.0000000000000000E+00   1.1719746450465209E+00   0.0000000000000000E+00
    1.0150000000000000E+01   4.2500000000000004E-01   4.5077376554602600E-01   1.4395973224593830E+00   0.0000000000000000E+00   0.0000000000000000E+00   0.0000000000000000E+00   0.0000000000000000E+00   1.0344994018857268E+00  -2.8421709430404007E-14
    1.0199999999999999E+01   4.2500000000000004E-01   4.5783016380224106E-01   1.4656457980879793E+00   0.0000000000000000E+00   0.0000000000000000E+00   0.0000000000000000E+00   0.0000000000000000E+00   1.0042402298796012E+00   0.0000000000000000E+00
    1.0250000000000000E+01   4.2499999999999999E-01   4.5852429265670880E-01   1.4670018364759450E+00   2.2345050817416047E-19   0.0000000000000000E+00   4.7290937027723965E-19  -4.7290937027723965E-19   1.0008382025794826E+00  -2.8421709430404007E-14
    1.0299999999999999E+01   4.2499999999999993E-01   4.5238561589461512E-01   1.4424573360968855E+00   1.4521360567590036E-17  -3.0676898911497087E-17  -4.7932654549214199E-19  -4.7932654549214199E-19   1.0261877220302946E+00   0.0000000000000000E+00
    1.0350000000000000E+01   4.2500000000000004E-01   4.4342032345742821E-01   1.4058912094865996E+00   1.4855338910034684E-17  -3.1297139697176804E-17   0.0000000000000000E+00   0.0000000000000000E+00   1.0646665821845174E+00   5.6843418860808015E-14