 variables = x,y,rho,p,mach,u,v,k,w,vis
 zone t ="100000",i=         101 ,j=         101 ,f=point
    1.0500000000000000E+01   0.0000000000000000E+00   4.9685465892667513E-01   1.3089708246321619E+00   1.2643056317848167E+00   2.4278350627307561E+00   2.1821314402639203E-19   1.4218816629823893E-06   7.3013063853145099E-02   4.0242396635084106E+01
    1.0595000000000001E+01   0.0000000000000000E+00   4.7368982149845407E-01   1.2244751143879160E+00   1.3135152266444614E+00   2.4984174410002380E+00  -1.1444220703917350E-18   1.4236311917930003E-06   7.3419337623622183E-02   3.8339629934427236E+01
    1.0690000000000000E+01   0.0000000000000000E+00   4.4731207729366679E-01   1.1303438140671631E+00   1.3713301985829047E+00   2.5787507495352049E+00  -1.9390528045567796E-18   1.4225043727689025E-06   7.3889782659354974E-02   3.4310676585055774E+01
    1.0785000000000000E+01   0.0000000000000000E+00   4.1520719463131983E-01   1.0187656855473119E+00   1.4446974090029214E+00   2.6765152238256849E+00  -1.0444926643896079E-18   1.4240272797290235E-06   7.4655605863170951E-02   3.4063992706869286E+01
    1.0880000000000001E+01   0.0000000000000000E+00   3.8069065687695203E-01   9.0221843662688794E-01   1.5288614066850983E+00   2.7836705008857980E+00  -2.2783898746134838E-18   1.4369557242523903E-06   7.5866257311739252E-02   4.2400672617661805E+01
    1.0975000000000001E+01   0.0000000000000000E+00   3.5001741318594309E-01   8.0193316520274194E-01   1.6089429742834662E+00   2.8805492107915414E+00  -2.4780531062539643E-18   1.4604040475752082E-06   7.7286681665711426E-02   6.3697741514340393E+01
    1.1070000000000000E+01   0.0000000000000000E+00   3.2659514955775015E-01   7.2758112709104239E-01   1.6742213088106366E+00   2.9561934579198232E+00  -6.6394260536547892E-19   1.4833816014561958E-06   7.8396708811665924E-02   1.0732058612968204E+02
    1.1164999999999999E+01   0.0000000000000000E+00   3.0990865702950898E-01   6.7602681309439983E-01   1.7229795452788264E+00   3.0106280440087421E+00  -6.9969143997308121E-19   1.5129153724680948E-06   7.9752581771488668E-02   1.3330856293165692E+02
    1.1260000000000002E+01   0.0000000000000000E+00   3.0337976837159986E-01   6.5608847516164359E-01   1.7427044561339142E+00   3.0323206094713351E+00   0.0000000000000000E+00   1.5409424090432052E-06   8.0918307938836975E-02   1.3100436482354371E+02
    1.1355000000000000E+01   0.0000000000000000E+00   3.0731796706408188E-01   6.6810688867435819E-01   1.7306540552180449E+00   3.0192051664289923E+00   1.7639745942016903E-19   1.6092279571124710E-06   8.1383784919647956E-02   1.3777466349861845E+02
    1.1449999999999999E+01   0.0000000000000000E+00   3.1576400824375139E-01   6.9407784717048293E-01   1.7052701854665571E+00   2.9912555286372116E+00   0.0000000000000000E+00   1.7546541299538610E-06   8.1952878084919550E-02   1.5328321222967583E+02
    1.1545000000000000E+01   0.0000000000000000E+00   3.2695576546303362E-01   7.2886946370434136E-01   1.6726201917829440E+00   2.9546744091087631E+00   3.3160515489000815E-19   1.9277209159010888E-06   8.2402330924521539E-02   1.7342295727409731E+02
    1.1640000000000001E+01   0.0000000000000000E+00   3.3950841460653081E-01   7.6844971268816642E-01   1.6371558486081468E+00   2.9140715260704781E+00  -3.1934471307346756E-19   2.1226005232127159E-06   8.2946620383935396E-02   1.9697104540316818E+02
    1.1734999999999999E+01   0.0000000000000000E+00   3.5396329979818669E-01   8.1479182778961934E-01   1.5975845231250809E+00   2.8676382203417661E+00   6.1260711102177303E-19   2.3618384445672831E-06   8.3760408089814886E-02   2.2625878685833436E+02
    1.1830000000000000E+01   0.0000000000000000E+00   3.7107028861328833E-01   8.7062844180981513E-01   1.5523961139606526E+00   2.8131645018554718E+00   1.1687297051318577E-18   2.6521057289204720E-06   8.4807363112896370E-02   2.6304107884650034E+02
    1.1925000000000001E+01   0.0000000000000000E+00   3.9050772645789655E-01   9.3524987111163194E-01   1.5031006158504605E+00   2.7519197440947893E+00   2.7763910904395385E-18   2.9730608312113507E-06   8.5926070057938508E-02   3.0629040002175225E+02
    1.2020000000000000E+01   0.0000000000000000E+00   4.1046805086739768E-01   1.0028537310761012E+00   1.4545946282113205E+00   2.6898681768276358E+00   2.1131041408838080E-18   3.2876707447546950E-06   8.7013646066187930E-02   3.5158897866324008E+02
    1.2115000000000000E+01   0.0000000000000000E+00   4.2933934554758102E-01   1.0678684488214487E+00   1.4103735607342089E+00   2.6315655780318230E+00   1.2626401280585044E-18   3.5149091432854258E-06   8.7425476015390718E-02   3.9142715167397796E+02
    1.2209999999999999E+01   0.0000000000000000E+00   4.4173511782819219E-01   1.1110770517009891E+00   1.3822773276097693E+00   2.5938509003126766E+00   2.4544169768888342E-19   3.5962189347732156E-06   8.7049987754157815E-02   4.1381526357813812E+02
    1.2305000000000000E+01   0.0000000000000000E+00   4.4287417179842786E-01   1.1151080899002597E+00   1.3797350483361612E+00   2.5904534134909083E+00  -6.1202607959884262E-20   3.6127362486605446E-06   8.6719513833601963E-02   4.1837188862453814E+02
    1.2399999999999999E+01   0.0000000000000000E+00   4.3550690612308385E-01   1.0892973033900253E+00   1.3963906000752613E+00   2.6129612808934981E+00   6.2237943718112078E-20   3.6358127815936994E-06   8.6600269954250506E-02   4.1460989757697803E+02
    1.2495000000000001E+01   0.0000000000000000E+00   4.2251013796390929E-01   1.0441711291319706E+00   1.4262687522588102E+00   2.6527750456234256E+00  -7.6982922424795171E-19   3.6625955677994352E-06   8.6631128103879143E-02   4.0505321059312934E+02
    1.2590000000000000E+01   0.0000000000000000E+00   4.0573279907485227E-01   9.8666983074555237E-01   1.4659115302790935E+00   2.7045230592498992E+00  -5.3444147229787241E-19   3.6976310222455426E-06   8.6905589340430384E-02   3.9144830102661132E+02
    1.2684999999999999E+01   0.0000000000000000E+00   3.8712701169671504E-01   9.2395503007305124E-01   1.5113742727917201E+00   2.7623321801211147E+00   0.0000000000000000E+00   3.7404231276137630E-06   8.7385526563495797E-02   3.7574380277375695E+02
    1.2779999999999999E+01   0.0000000000000000E+00   3.6821350905443884E-01   8.6137258999081356E-01   1.5594007825600531E+00   2.8216701689126551E+00  -5.8889863941695285E-19   3.7910572049764365E-06   8.8043042900049232E-02   3.5951821219823262E+02
    1.2875000000000000E+01   0.0000000000000000E+00   3.5045526564347340E-01   8.0374275902542125E-01   1.6063424944735392E+00   2.8779867294974641E+00  -3.0936963395165234E-18   3.8468622193353647E-06   8.8779429966905091E-02   3.4433595042814318E+02
    1.2969999999999999E+01   0.0000000000000000E+00   3.3453373557363220E-01   7.5304897287926065E-01   1.6501098927515361E+00   2.9290092854044567E+00  -6.4818704793787065E-19   3.9022500910176295E-06   8.9506148275349764E-02   3.3071853572721716E+02
    1.3065000000000000E+01   0.0000000000000000E+00   3.2072852592846757E-01   7.0986375434089821E-01   1.6894939968295504E+00   2.9737338094910015E+00   1.0141307225606573E-18   3.9528951936897463E-06   9.0186621044703263E-02   3.1876334193602696E+02
    1.3160000000000000E+01   0.0000000000000000E+00   3.0916764743319092E-01   6.7425965334327898E-01   1.7235956203360447E+00   3.0115392446368139E+00   3.5068422633703721E-19   3.9990946045675424E-06   9.0834977822019644E-02   3.0864613286044545E+02
    1.3254999999999999E+01   0.0000000000000000E+00   3.0026127754951848E-01   6.4718492405694705E-01   1.7506387297874957E+00   3.0409603582105120E+00  -3.6108624506425074E-19   4.0376877930292773E-06   9.1366207041447503E-02   3.0088888764080332E+02
    1.3350000000000000E+01   0.0000000000000000E+00   2.9367210149526579E-01   6.2737335548115492E-01   1.7710800880383966E+00   3.0628411915935940E+00   1.8459400245463605E-19   4.0788741260810377E-06   9.1983672673455599E-02   2.9529110667895509E+02
    1.3445000000000000E+01   0.0000000000000000E+00   2.9010768558905059E-01   6.1672168663731797E-01   1.7823047116508246E+00   3.0747548116635306E+00  -1.8686202164621746E-19   4.1189657988098445E-06   9.2580023670832290E-02   2.9267803631610906E+02
    1.3539999999999999E+01   0.0000000000000000E+00   2.9000324152046902E-01   6.1642137958809551E-01   1.7826049282639331E+00   3.0750784323404825E+00  -9.3464659808723136E-20   4.1510733905133327E-06   9.2931575989293358E-02   2.9373753195883432E+02
    1.3635000000000000E+01   0.0000000000000000E+00   2.9201061858363170E-01   6.2241830302122292E-01   1.7762331780372520E+00   3.0683397625521605E+00   2.3205538246869212E-19   4.2201103697337375E-06   9.3473768684342512E-02   2.9893723915014482E+02
    1.3729999999999999E+01   0.0000000000000000E+00   2.9595143009181607E-01   6.3424335513199570E-01   1.7638267369555605E+00   3.0551385070043300E+00   2.7475847273718389E-19   4.3540412442767971E-06   9.4349435201000434E-02   3.0967315177316891E+02
    1.3824999999999999E+01   0.0000000000000000E+00   3.0198058885985862E-01   6.5246145079936824E-01   1.7451110993727652E+00   3.0350210574294700E+00   3.5903041866994127E-19   4.5489707798170547E-06   9.5495974384077406E-02   3.2614926960912197E+02
    1.3919999999999998E+01   0.0000000000000000E+00   3.1000955602018171E-01   6.7695206181307432E-01   1.7206813531326015E+00   3.0084009837107657E+00   0.0000000000000000E+00   4.8004825590869454E-06   9.6888083571077727E-02   3.4824086197144828E+02
    1.4015000000000001E+01   0.0000000000000000E+00   3.1997746960488771E-01   7.0771521526435854E-01   1.6910941827232220E+00   2.9755895800391992E+00  -3.3883703556512626E-19   5.1087091187733319E-06   9.8523066826501166E-02   3.7614967641117880E+02
    1.4109999999999999E+01   0.0000000000000000E+00   3.3157652148899974E-01   7.4398067220002662E-01   1.6576719363018548E+00   2.9377769966705678E+00   3.2698399983711557E-19   5.4635543024213397E-06   1.0033742558534534E-01   4.0931503590518531E+02
    1.4205000000000002E+01   0.0000000000000000E+00   3.4416070149749028E-01   7.8387805585718051E-01   1.6225556668675172E+00   2.8971653835881037E+00   3.1502788312785060E-19   5.8489689445650644E-06   1.0226291242671649E-01   4.4625295921070301E+02
    1.4300000000000001E+01   0.0000000000000000E+00   3.5716847044894640E-01   8.2570300467514302E-01   1.5874136711390305E+00   2.8556004270954962E+00   1.2142193527023323E-18   6.2538447005997647E-06   1.0425796968886589E-01   4.8570785213355862E+02
    1.4395000000000000E+01   0.0000000000000000E+00   3.6999186399934736E-01   8.6750215549317211E-01   1.5538235420026703E+00   2.8149930531514995E+00   1.1721362310684940E-18   6.6557130944916678E-06   1.0620603682433288E-01   5.2567701705637683E+02
    1.4490000000000000E+01   0.0000000000000000E+00   3.8187631824003654E-01   9.0673194459555395E-01   1.5235572859184989E+00   2.7776685018778582E+00   2.8391448243826575E-19   7.0181526807434521E-06   1.0792212606311448E-01   5.6304719991499655E+02
    1.4585000000000001E+01   0.0000000000000000E+00   3.9181801322715637E-01   9.3990114926815771E-01   1.4988267306496119E+00   2.7466456959424530E+00   0.0000000000000000E+00   7.2899659878040342E-06   1.0916007629367407E-01   5.9331889883166059E+02
    1.4680000000000000E+01   0.0000000000000000E+00   3.9871837814544531E-01   9.6311232999800300E-01   1.4819663787625750E+00   2.7252339909152981E+00   1.3596089770534817E-19   7.4068103349972089E-06   1.0953851872488236E-01   6.1135398028940938E+02
    1.4775000000000000E+01   0.0000000000000000E+00   4.0045150588787837E-01   9.6896101507489174E-01   1.4777929546505828E+00   2.7199153740235942E+00   0.0000000000000000E+00   7.4485987110908064E-06   1.0964621483119492E-01   6.1686544124734223E+02
    1.4870000000000001E+01   0.0000000000000000E+00   3.9717096660886297E-01   9.5787915292420633E-01   1.4857756461840612E+00   2.7301104497642497E+00  -3.0710387883094927E-19   7.5073215784876413E-06   1.0997875730097446E-01   6.1477144869874428E+02
    1.4965000000000000E+01   0.0000000000000000E+00   3.9061288370920266E-01   9.3584135897860499E-01   1.5018673789721841E+00   2.7505081282830366E+00  -1.3878218278287183E-19   7.5685140877366040E-06   1.1032241097025468E-01   6.0764899116274705E+02
    1.5060000000000002E+01   0.0000000000000000E+00   3.8120528595546377E-01   9.0447344933142682E-01   1.5253238643872471E+00   2.7798799259444875E+00   0.0000000000000000E+00   7.6416053331790734E-06   1.1082397245061981E-01   5.9603007720774713E+02
    1.5154999999999999E+01   0.0000000000000000E+00   3.6996626212023676E-01   8.6738225750376596E-01   1.5539671355923299E+00   2.8151756179139680E+00   0.0000000000000000E+00   7.7268039891350978E-06   1.1149717197117265E-01   5.8137439552334831E+02
    1.5250000000000000E+01   0.0000000000000000E+00   3.5783185866009071E-01   8.2782190255491095E-01   1.5856912007788682E+00   2.8535326862126578E+00   6.0598414939649218E-19   7.8219985994326588E-06   1.1232234067010313E-01   5.6505118960686582E+02
    1.5345000000000002E+01   0.0000000000000000E+00   3.4568578207842637E-01   7.8873856637359618E-01   1.6183481837452878E+00   2.8922343172511100E+00   0.0000000000000000E+00   7.9237114087391929E-06   1.1326070494374046E-01   5.4838825363114597E+02
    1.5439999999999998E+01   0.0000000000000000E+00   3.3424676008949439E-01   7.5242264667409042E-01   1.6499840510642687E+00   2.9289720120947207E+00  -6.4874356430273839E-19   8.0259501892243709E-06   1.1423917911197251E-01   5.3248358258406324E+02
    1.5535000000000000E+01   0.0000000000000000E+00   3.2384074484811687E-01   7.1981096945148582E-01   1.6795607360274905E+00   2.9626558609304805E+00  -3.3479486128096741E-19   8.1256839713002880E-06   1.1521870547127498E-01   5.1787682163317697E+02
    1.5629999999999999E+01   0.0000000000000000E+00   3.1472027978578387E-01   6.9156819665555425E-01   1.7061538074408296E+00   2.9924039277688106E+00  -6.8899415901858801E-19   8.2217828488629896E-06   1.1617870093227038E-01   5.0503639513701410E+02
    1.5724999999999998E+01   0.0000000000000000E+00   3.0705744678789348E-01   6.6808744546204957E-01   1.7290154565919102E+00   3.0175718284861324E+00   0.0000000000000000E+00   8.3140775628009970E-06   1.1711408389844374E-01   4.9429178075632831E+02
    1.5820000000000000E+01   0.0000000000000000E+00   3.0103903127626058E-01   6.4980947327957905E-01   1.7473155299669449E+00   3.0374562389173652E+00  -1.8007667774657146E-19   8.4012587725510909E-06   1.1800095875044975E-01   4.8600511076502755E+02
    1.5914999999999999E+01   0.0000000000000000E+00   2.9666671964777080E-01   6.3662224374486764E-01   1.7608125920151794E+00   3.0519687586794095E+00  -3.6546134118878112E-19   8.4881671902225555E-06   1.1889618616343237E-01   4.8025720811332025E+02
    1.6010000000000002E+01   0.0000000000000000E+00   2.9406468640559819E-01   6.2881261291081336E-01   1.7689199694590223E+00   3.0606290410666444E+00  -9.2173782045873031E-20   8.5775959048745490E-06   1.1982960389796325E-01   4.7731326349971505E+02
    1.6105000000000000E+01   0.0000000000000000E+00   2.9359026109978348E-01   6.2739828972370248E-01   1.7703833926021684E+00   3.0621895688347793E+00  -4.6161364839900679E-20   8.6592908817108009E-06   1.2065287176448554E-01   4.7779980891119862E+02
    1.6199999999999999E+01   0.0000000000000000E+00   2.9486396783334862E-01   6.3121992014334860E-01   1.7663816423495540E+00   3.0579265639989441E+00  -4.5961964276789597E-20   8.7681294330339096E-06   1.2160116597749294E-01   4.8210910834669232E+02
    1.6295000000000002E+01   0.0000000000000000E+00   2.9753302892249767E-01   6.3925097245919105E-01   1.7580444381413181E+00   3.0490094785809854E+00  -9.1099312268951555E-20   8.9619859759743678E-06   1.2305536948277705E-01   4.9133774565856663E+02
    1.6390000000000001E+01   0.0000000000000000E+00   3.0175347151639598E-01   6.5201059584070475E-01   1.7449908290704725E+00   3.0349513216617208E+00  -8.9825161499972475E-20   9.2597974422446728E-06   1.2506518418586410E-01   5.0657056914869258E+02
    1.6484999999999999E+01   0.0000000000000000E+00   3.0749024171843237E-01   6.6947040993053109E-01   1.7274981243020751E+00   3.0159281651534968E+00  -5.2889589264346678E-19   9.6666036963136425E-06   1.2762052199187787E-01   5.2806152403651254E+02
    1.6580000000000002E+01   0.0000000000000000E+00   3.1462221273772262E-01   6.9135851762547984E-01   1.7061415205251858E+00   2.9924111188263915E+00   1.7230222924363640E-19   1.0192079669048924E-05   1.3072775250237711E-01   5.5610480469767674E+02
    1.6675000000000001E+01   0.0000000000000000E+00   3.2287611923107662E-01   7.1693207332412534E-01   1.6819503411774286E+00   2.9653827037067910E+00   5.0369264304875416E-19   1.0842306044862781E-05   1.3437818532389412E-01   5.9057466678367086E+02
    1.6770000000000000E+01   0.0000000000000000E+00   3.3185887917152979E-01   7.4505270161411019E-01   1.6562325691099973E+00   2.9361851784290152E+00  -3.2670578988037465E-19   1.1618644856550616E-05   1.3856171264118122E-01   6.3079326114096284E+02
    1.6865000000000002E+01   0.0000000000000000E+00   3.4122229452747371E-01   7.7467752547893265E-01   1.6300636537598558E+00   2.9059752349082459E+00  -3.1774071913645408E-19   1.2519558533893221E-05   1.4327153137910384E-01   6.7587966255769493E+02
    1.6960000000000001E+01   0.0000000000000000E+00   3.5056429243120946E-01   8.0454488179711015E-01   1.6045721249895055E+00   2.8760606169460634E+00   3.0927341885461858E-19   1.3522657901679180E-05   1.4844256788253082E-01   7.2388749441380173E+02
    1.7055000000000000E+01   0.0000000000000000E+00   3.5947530016201878E-01   8.3331378879085438E-01   1.5807921243042233E+00   2.8477041129337151E+00  -3.0160686200048923E-19   1.4560494849028553E-05   1.5382620185545068E-01   7.7132919302078483E+02
    1.7150000000000002E+01   0.0000000000000000E+00   3.6719668076427558E-01   8.5845629653535704E-01   1.5606107591504217E+00   2.8233197902338132E+00  -2.9526469853400320E-19   1.5534738312031437E-05   1.5916757118430835E-01   8.1248556018053432E+02
    1.7245000000000001E+01   0.0000000000000000E+00   3.7348787999002109E-01   8.7910237376199463E-01   1.5443981226480639E+00   2.8034906107885273E+00  -1.4514556302529446E-19   1.6285937582134798E-05   1.6379539517278557E-01   8.4201150611892899E+02
    1.7340000000000000E+01   0.0000000000000000E+00   3.7735629622110367E-01   8.9184920288975955E-01   1.5345714546726954E+00   2.7913891797771528E+00   0.0000000000000000E+00   1.6783716923541686E-05   1.6761336200554830E-01   8.5681337523040429E+02
    1.7434999999999999E+01   0.0000000000000000E+00   3.7771950268836874E-01   8.9303826568314326E-01   1.5336955815800304E+00   2.7903150762974578E+00   7.1759742664122351E-20   1.7214542614918351E-05   1.7150845898905209E-01   8.5967663297634988E+02
    1.7530000000000001E+01   0.0000000000000000E+00   3.7540969757338383E-01   8.8540286802794554E-01   1.5395844238262146E+00   2.7975852777834151E+00  -2.5270442054560196E-19   1.7667324112545822E-05   1.7567451224269776E-01   8.5609943109563005E+02
    1.7625000000000000E+01   0.0000000000000000E+00   3.7100400492279817E-01   8.7089679260861241E-01   1.5508802849109757E+00   2.8114552533670101E+00  -3.6529328460723587E-19   1.8135079751424460E-05   1.8002929568873080E-01   8.4744624731671274E+02
    1.7719999999999999E+01   0.0000000000000000E+00   3.6474481256695257E-01   8.5040392261900244E-01   1.5671083706469517E+00   2.8312104323134135E+00  -7.4312377800197520E-19   1.8631009232003882E-05   1.8469531519024263E-01   8.3430981058947100E+02
    1.7814999999999998E+01   0.0000000000000000E+00   3.5718954114683132E-01   8.2584794713872633E-01   1.5869992830760176E+00   2.8551523915447352E+00  -4.5530539710280199E-19   1.9157790644363151E-05   1.8969329983494976E-01   8.1799439306165993E+02
    1.7910000000000000E+01   0.0000000000000000E+00   3.4892105848045024E-01   7.9920368340608050E-01   1.6091655674939689E+00   2.8814808009617185E+00  -3.1072993335718986E-19   1.9715482799853221E-05   1.9502073416708912E-01   7.9985707155128671E+02
    1.8004999999999999E+01   0.0000000000000000E+00   3.4055134219174110E-01   7.7248128844182262E-01   1.6320524772727429E+00   2.9082837737876872E+00  -3.1836673011115737E-19   2.0300486176251200E-05   2.0064295178797084E-01   7.8131152383240772E+02
    1.8100000000000001E+01   0.0000000000000000E+00   3.3256736901607908E-01   7.4723082113619865E-01   1.6543246910127729E+00   2.9339955205227635E+00  -6.5201957467636280E-19   2.0906531998737468E-05   2.0650118902650783E-01   7.6348186437865115E+02
    1.8194999999999997E+01   0.0000000000000000E+00   3.2524638631490055E-01   7.2428682913905940E-01   1.6751441309829991E+00   2.9577019337953017E+00  -6.6669590692133922E-19   2.1531971484091544E-05   2.1257969694156575E-01   7.4702414889701777E+02
    1.8289999999999999E+01   0.0000000000000000E+00   3.1882744560193554E-01   7.0433714989810348E-01   1.6937285915966025E+00   2.9785990371133506E+00  -3.4005923500047716E-19   2.2177474410033560E-05   2.1888472630173833E-01   7.3250897310178129E+02
    1.8384999999999998E+01   0.0000000000000000E+00   3.1349790741816219E-01   6.8789372034301621E-01   1.7093982377708601E+00   2.9960229490212691E+00   0.0000000000000000E+00   2.2847728404473284E-05   2.2546656587104749E-01   7.2037177689267639E+02
    1.8480000000000000E+01   0.0000000000000000E+00   3.0950310697349859E-01   6.7564024516743515E-01   1.7212968922721992E+00   3.0091401771058375E+00   2.6272809902155685E-19   2.3537423001185191E-05   2.3227573896488496E-01   7.1118358362053141E+02
    1.8574999999999999E+01   0.0000000000000000E+00   3.0669359660948592E-01   6.6706532237015903E-01   1.7297309021697940E+00   3.0183733710499112E+00   0.0000000000000000E+00   2.4284740674748500E-05   2.3969157484264891E-01   7.0460819080642807E+02
    1.8669999999999998E+01   0.0000000000000000E+00   3.0572967856932742E-01   6.6413175379089229E-01   1.7326268156987679E+00   3.0215328563036641E+00  -8.8656928692617114E-20   2.5075746256859577E-05   2.4758666698392334E-01   7.0214551781383534E+02
    1.8765000000000001E+01   0.0000000000000000E+00   3.0685941058332639E-01   6.6757755062240431E-01   1.7291954278115382E+00   3.0177856936687899E+00   9.9371846029387177E-20   2.6043076497816211E-05   2.5649042213221074E-01   7.0647905050919917E+02
    1.8859999999999999E+01   0.0000000000000000E+00   3.0961329716469033E-01   6.7600038046361544E-01   1.7208806976225184E+00   3.0086732491735604E+00   4.3772432515583817E-20   2.7736957057762878E-05   2.6886721370992661E-01   7.2401970215344340E+02
    1.8954999999999998E+01   0.0000000000000000E+00   3.1440916826381093E-01   6.9074392771587778E-01   1.7065493703702330E+00   2.9928527144456751E+00   8.6209490842183728E-20   3.0821292699468756E-05   2.8686610613092245E-01   7.6524264462477402E+02
    1.9049999999999997E+01   0.0000000000000000E+00   3.2163670480363787E-01   7.1314233978570929E-01   1.6852876842241178E+00   2.9691102029520291E+00   1.6854453429800864E-19   3.6333613481960124E-05   3.1307503956435517E-01   8.4442633324832934E+02
    1.9145000000000000E+01   0.0000000000000000E+00   3.3196659934039474E-01   7.4553082053957942E-01   1.6555504301293611E+00   2.9353503777312540E+00  -3.2659977679675416E-19   4.6676415139463928E-05   3.5227459727661303E-01   9.9219880426828354E+02
    1.9240000000000002E+01   0.0000000000000000E+00   3.4658809162558374E-01   7.9212960990977721E-01   1.6146530761574474E+00   2.8878542509218255E+00  -9.3846459126768772E-19   6.7462779697593448E-05   4.1277275519809981E-01   1.2710915114204863E+03
    1.9335000000000001E+01   0.0000000000000000E+00   3.6756553933677538E-01   8.6052814048989323E-01   1.5581303727206921E+00   2.8201470805391700E+00   0.0000000000000000E+00   1.1222482222714679E-04   5.0866181091231732E-01   1.8055673178240595E+03
    1.9430000000000003E+01   0.0000000000000000E+00   3.9857341522253731E-01   9.6486978664747913E-01   1.4785314496008664E+00   2.7205749345343953E+00   1.6321241674588210E-18   2.1116120727920074E-04   6.5996895361620311E-01   2.8188671699320357E+03
    1.9525000000000002E+01   0.0000000000000000E+00   4.4377447095460809E-01   1.1236280867616033E+00   1.3695236876280035E+00   2.5763489626038187E+00   3.9090204360904867E-18   4.0923578880587921E-04   8.8493915983277127E-01   4.5376378757598486E+03
    1.9619999999999997E+01   0.0000000000000000E+00   5.1452524879465789E-01   1.3841438543643176E+00   1.2115860637814779E+00   2.3475359286150121E+00   4.2143788862660819E-19   6.2171405286225905E-04   1.0707742241849343E+00   6.7433442245033939E+03
    1.9715000000000000E+01   0.0000000000000000E+00   5.5390158766186726E-01   1.5308537505107758E+00   1.1367126792836595E+00   2.2359295282784517E+00  -1.1744348057157357E-18   7.6412999248170381E-04   1.1848642571911201E+00   8.0864126976771640E+03
    1.9810000000000002E+01   0.0000000000000000E+00   5.2997935679197794E-01   1.4398216351141910E+00   1.1841617077049400E+00   2.3087503911453591E+00   1.0228720784978275E-19   8.9361375040131251E-04   1.3027889823962258E+00   8.2321502373542680E+03
    1.9905000000000001E+01   0.0000000000000000E+00   4.8891554993046371E-01   1.2863498046943618E+00   1.2691277408769936E+00   2.4346548631505160E+00   4.4351306586166292E-19   1.0459513789892703E-03   1.4373322975989284E+00   8.0550584264926838E+03
    2.0000000000000000E+01   0.0000000000000000E+00   4.5820500928607305E-01   1.1740175202064829E+00   1.3367097670008539E+00   2.5314771246795766E+00   2.3661944992150883E-19   1.1808965140906963E-03   1.5546489036779227E+00   7.8895666235726212E+03
    1.0500000000000004E+01   4.2499999999999996E-02   4.9623627624546074E-01   1.3046718112725844E+00   1.2699783354998886E+00   2.4361378129253453E+00   2.0674396360126673E-02   5.3272223190057494E-06   7.5522591359984931E-02   1.2450776143391244E+02
    1.0595000000000002E+01   4.2374999999999996E-02   4.7249814144828306E-01   1.2183809830476278E+00   1.3201914807564814E+00   2.5078629740726028E+00   2.4234007437372838E-02   5.2280432071844782E-06   7.5880491148364412E-02   1.1590975461511937E+02
    1.0690000000000000E+01   4.2249999999999989E-02   4.4501782050753808E-01   1.1207505788923493E+00   1.3801455911702689E+00   2.5906344096067708E+00   3.3958560120229325E-02   5.0943293665371685E-06   7.6276553000856270E-02   8.9442097972091403E+01
    1.0784999999999998E+01   4.2124999999999996E-02   4.1207163481384124E-01   1.0068516727333239E+00   1.4552166665108024E+00   2.6898378303133677E+00   4.9405042435429286E-02   4.9415301029443284E-06   7.7042024333226877E-02   6.5400078629933489E+01
    1.0879999999999997E+01   4.1999999999999996E-02   3.7783141225504580E-01   8.9188869040549101E-01   1.5385826107534997E+00   2.7951981449010588E+00   5.8562713948200368E-02   4.8147186501978088E-06   7.8310123072546145E-02   6.0606883123780520E+01
    1.0975000000000003E+01   4.1874999999999996E-02   3.4813564591872975E-01   7.9528470482228619E-01   1.6159810367701135E+00   2.8884062894235170E+00   5.6160867739220348E-02   4.7350102673574069E-06   7.9755028734077138E-02   7.7758845088156804E+01
    1.1070000000000006E+01   4.1749999999999995E-02   3.2596491504008518E-01   7.2517722283043373E-01   1.6774830676900656E+00   2.9595982542064907E+00   4.8019827785816468E-02   4.6843108553048288E-06   8.0920306879095794E-02   1.1166662305786173E+02
    1.1164999999999999E+01   4.1624999999999995E-02   3.1082167377487557E-01   6.7854296195007735E-01   1.7212954584453402E+00   3.0087617716605024E+00   3.1077489011076712E-02   4.6975155077199907E-06   8.2322960965231548E-02   1.7424200356961896E+02
    1.1260000000000005E+01   4.1499999999999995E-02   3.0517779470510198E-01   6.6136211099392783E-01   1.7380775748676662E+00   3.0274120853178190E+00   7.4011940202769596E-03   4.7666824724947735E-06   8.3633615587609733E-02   2.3455193845620852E+02
    1.1355000000000002E+01   4.1374999999999995E-02   3.0898636852424255E-01   6.7299571074763642E-01   1.7264967441914867E+00   3.0147402031422437E+00  -1.3944326854011228E-02   4.9785382759225704E-06   8.5040739167167936E-02   3.3050351642914683E+02
    1.1449999999999999E+01   4.1249999999999995E-02   3.1706275892247882E-01   6.9783609935712854E-01   1.7024421133660577E+00   2.9881214070430091E+00  -2.6122428678085122E-02   5.4088737793501887E-06   8.7506061932444978E-02   4.2700805556900212E+02
    1.1545000000000005E+01   4.1124999999999988E-02   3.2802513727433735E-01   7.3190076154379036E-01   1.6707341653334153E+00   2.9525109871129698E+00  -2.8711946325934119E-02   5.9359452524120727E-06   9.0360197712852378E-02   4.6310875840646491E+02
    1.1640000000000006E+01   4.0999999999999995E-02   3.4065635349368351E-01   7.7170021817781320E-01   1.6353494557108881E+00   2.9119351928250774E+00  -2.8692827107828927E-02   6.5462355766059051E-06   9.3698412776454756E-02   5.0442720303960954E+02
    1.1734999999999998E+01   4.0875000000000002E-02   3.5539831885323908E-01   8.1891569364645567E-01   1.5953758774350673E+00   2.8649360221314035E+00  -3.0254225916608434E-02   7.2944736069174904E-06   9.7880704457882953E-02   5.5349571024117074E+02
    1.1830000000000000E+01   4.0749999999999995E-02   3.7263101994755005E-01   8.7510102532399614E-01   1.5503092543398929E+00   2.8105076265708075E+00  -3.1831243274306940E-02   8.1860387703126008E-06   1.0290364922915408E-01   6.1120284100446884E+02
    1.1925000000000001E+01   4.0624999999999994E-02   3.9189034529993838E-01   9.3908338382916079E-01   1.5018659458630734E+00   2.7502589639226080E+00  -3.1307523810322743E-02   9.1547163578186884E-06   1.0831659021558719E-01   6.7514826520072461E+02
    1.2019999999999996E+01   4.0500000000000001E-02   4.1141449240363970E-01   1.0051701316664936E+00   1.4547001216376141E+00   2.6899448424637451E+00  -2.7958184545726478E-02   1.0085581199355550E-05   1.1348871395207789E-01   7.3899066814768935E+02