 variables = "X","Y","Z","Cp","Cfx","Cfy","Cfz","Cf","T","u","v","w","yplus"
 zone i=         151
   1.00000000000000       1.665324653670056E-017  0.000000000000000E+000
  0.229866222371129       7.615564682601342E-003 -2.088169837953474E-004
  0.000000000000000E+000  7.824381666396690E-003   1.00019578927501     
  0.143740292751166      -3.606364118057620E-002  0.000000000000000E+000
   3.35499596210544     
  0.999001425599671       5.447267690042997E-005  0.000000000000000E+000
  0.175361926827236       6.932287434019348E-003 -3.776066391855421E-004
  0.000000000000000E+000  7.309894073204890E-003   1.00019308380737     
  0.129929280927837      -4.337819699204143E-003  0.000000000000000E+000
   3.11998832077236     
  0.997949997818270       1.116616879644300E-004  0.000000000000000E+000
  0.195273304705779       6.368828912308801E-003 -3.458309631832014E-004
  0.000000000000000E+000  6.714659875492002E-003   1.00019433736302     
  0.119358750191205      -4.160295896207090E-003  0.000000000000000E+000
   2.99048811637595     
  0.996843037128316       1.716701774105140E-004  0.000000000000000E+000
  0.201953790844755       5.883917671717735E-003 -3.185948475602114E-004
  0.000000000000000E+000  6.202512519277946E-003   1.00019412068770     
  0.110253925623045      -4.156618406602793E-003  0.000000000000000E+000
   2.87433614630972     
  0.995677746198344       2.346938777538863E-004  0.000000000000000E+000
  0.205489114131979       5.488018797449822E-003 -2.962797374266734E-004
  0.000000000000000E+000  5.784298534876496E-003   1.00019351941299     
  0.102820672181547      -4.151285980074120E-003  0.000000000000000E+000
   2.77591646378735     
  0.994451193364049       3.007928008083059E-004  0.000000000000000E+000
  0.208113916258071       5.166534226324236E-003 -2.779312180406991E-004
  0.000000000000000E+000  5.444465444364935E-003   1.00019295710199     
  9.678575232095354E-002 -4.126355232804173E-003  0.000000000000000E+000
   2.69336665695080     
  0.993160320569400       3.701124539357903E-004  0.000000000000000E+000
  0.210932714555156       4.905377273722506E-003 -2.629980628847726E-004
  0.000000000000000E+000  5.168375336607279E-003   1.00019262494486     
  9.188416199878123E-002 -4.091617537372500E-003  0.000000000000000E+000
   2.62440633855361     
  0.991801936040528       4.428260084685768E-004  0.000000000000000E+000
  0.213780220219405       4.694352096821892E-003 -2.507365416121817E-004
  0.000000000000000E+000  4.945088638434074E-003   1.00019248923535     
  8.792357376647514E-002 -4.062795934401304E-003  0.000000000000000E+000
   2.56733884786317     
  0.990372703239448       5.189985854962523E-004  0.000000000000000E+000
  0.215014027219695       4.528874339696132E-003 -2.409129921714118E-004
  0.000000000000000E+000  4.769787331867544E-003   1.00019216937422     
  8.481736374764945E-002 -4.050429120392802E-003  0.000000000000000E+000
   2.52169157422509     
  0.988869149734546       5.988289370959963E-004  0.000000000000000E+000
  0.215034622509847       4.404391971630011E-003 -2.333743300136105E-004
  0.000000000000000E+000  4.637766301643621E-003   1.00019169560847     
  8.248053556562106E-002 -4.045773006167626E-003  0.000000000000000E+000
   2.48680675085668     
  0.987287653567351       6.824581442352054E-004  0.000000000000000E+000
  0.214635085910686       4.313744115946248E-003 -2.274699275526981E-004
  0.000000000000000E+000  4.541214043498946E-003   1.00019118962160     
  8.077911409462388E-002 -4.039126124752210E-003  0.000000000000000E+000
   2.46110243710978     
  0.985624436699843       7.699165229630898E-004  0.000000000000000E+000
  0.214852869359447       4.250367151751315E-003 -2.232074832113573E-004
  0.000000000000000E+000  4.473574634962673E-003   1.00019090784273     
  7.958950681336766E-002 -4.036853019260963E-003  0.000000000000000E+000
   2.44297533605011     
  0.983875589210279       8.616377525778661E-004  0.000000000000000E+000
  0.213263629998664       4.209956307789232E-003 -2.198486187969111E-004
  0.000000000000000E+000  4.429804926586144E-003   1.00019065118921     
  7.883095885641736E-002 -4.037997120193744E-003  0.000000000000000E+000
   2.43135857661222     
  0.982037001885699       9.572376115019621E-004  0.000000000000000E+000
  0.211987628990755       4.187812019076398E-003 -2.177256175371375E-004
  0.000000000000000E+000  4.405537636613535E-003   1.00019069100807     
  7.841534294338073E-002 -4.039240308249864E-003  0.000000000000000E+000
   2.42497548507053     
  0.980104478202655       1.057699935824212E-003  0.000000000000000E+000
  0.210783932893719       4.177771276578103E-003 -2.158126982042640E-004
  0.000000000000000E+000  4.393583974782366E-003   1.00019075584823     
  7.822769825511892E-002 -4.027691691720914E-003  0.000000000000000E+000
   2.42209492971463     
  0.978073553669464       1.161948348956863E-003  0.000000000000000E+000
  0.208886224401795       4.175349351359449E-003 -2.143211825921838E-004
  0.000000000000000E+000  4.389670533951633E-003   1.00019072480338     
  7.818318645698746E-002 -4.013670556063127E-003  0.000000000000000E+000
   2.42141904999287     
  0.975939733923639       1.271478426898274E-003  0.000000000000000E+000
  0.207276209986048       4.178002019716079E-003 -2.131935947432983E-004
  0.000000000000000E+000  4.391195614459377E-003   1.00019080507388     
  7.823389790378249E-002 -4.001780029879571E-003  0.000000000000000E+000
   2.42221475235477     
  0.973698227034776       1.385180156087390E-003  0.000000000000000E+000
  0.205537025204876       4.186803005223864E-003 -2.120816934450276E-004
  0.000000000000000E+000  4.398884698668891E-003   1.00019084918833     
  7.839966395404188E-002 -3.996664441405384E-003  0.000000000000000E+000
   2.42479456021722     
  0.971344194597081       1.504258504303337E-003  0.000000000000000E+000
  0.204461033648158       4.203407090057628E-003 -2.115340759311407E-004
  0.000000000000000E+000  4.414941165988769E-003   1.00019082046067     
  7.871151456130207E-002 -4.000725098188198E-003  0.000000000000000E+000
   2.42962749926137     
  0.968872537262536       1.628001624485897E-003  0.000000000000000E+000
  0.202966897533770       4.228532859847282E-003 -2.110499085974928E-004
  0.000000000000000E+000  4.439582768444775E-003   1.00019059647089     
  7.918325966026787E-002 -4.006699443377269E-003  0.000000000000000E+000
   2.43691278873796     
  0.966278062333970       1.757096938973359E-003  0.000000000000000E+000
  0.202173870356773       4.262080405949595E-003 -2.111321769689713E-004
  0.000000000000000E+000  4.473212582918567E-003   1.00019047959136     
  7.981280638325877E-002 -4.019205327458517E-003  0.000000000000000E+000
   2.44659366113331     
  0.963555373647426       1.891373763395130E-003  0.000000000000000E+000
  0.201047746962104       4.303252931182339E-003 -2.112138399730795E-004
  0.000000000000000E+000  4.514466771155419E-003   1.00019030376044     
  8.058559936574573E-002 -4.030063553870063E-003  0.000000000000000E+000
   2.45842091536881     
  0.960698927782761       2.030904889090778E-003  0.000000000000000E+000
  0.200362219612316       4.348448183092718E-003 -2.115765029777936E-004
  0.000000000000000E+000  4.560024686070512E-003   1.00019022777839     
  8.143420701760068E-002 -4.034852903379394E-003  0.000000000000000E+000
   2.47133396252558     
  0.957703044267799       2.176098169407578E-003  0.000000000000000E+000
  0.199363167243519       4.391269951817557E-003 -2.114767015426690E-004
  0.000000000000000E+000  4.602746653360226E-003   1.00019011287512     
  8.223913690919735E-002 -4.022008698247405E-003  0.000000000000000E+000
   2.48351418826898     
  0.954561846157195       2.326415247496387E-003  0.000000000000000E+000
  0.198628297631558       4.429068510395331E-003 -2.111285029167970E-004
  0.000000000000000E+000  4.640197013312128E-003   1.00019003117548     
  8.294992364730576E-002 -4.005498162328529E-003  0.000000000000000E+000
   2.49422119241128     
  0.951269384357213       2.482757904136671E-003  0.000000000000000E+000
  0.197910767154326       4.462116648937307E-003 -2.102937876236717E-004
  0.000000000000000E+000  4.672410436560978E-003   1.00018993896444     
  8.357191769330663E-002 -3.981366854885127E-003  0.000000000000000E+000
   2.50355474928236     
  0.947819482538107       2.644120805717701E-003  0.000000000000000E+000
  0.197270270791023       4.490883585873709E-003 -2.091274803611761E-004
  0.000000000000000E+000  4.700011066234885E-003   1.00018987165340     
  8.411374980792530E-002 -3.952289802361456E-003  0.000000000000000E+000
   2.51165820276719     
  0.944205942257812       2.811651156899837E-003  0.000000000000000E+000
  0.196724217270912       4.515619488144784E-003 -2.076435962624290E-004
  0.000000000000000E+000  4.723263084407213E-003   1.00018986009054     
  8.458016667699032E-002 -3.917986841675564E-003  0.000000000000000E+000
   2.51861426495039     
  0.940422342196095       2.984205242399509E-003  0.000000000000000E+000
  0.195944739500874       4.536641445353711E-003 -2.056982746206545E-004
  0.000000000000000E+000  4.742339719974366E-003   1.00018980753409     
  8.497718421507604E-002 -3.876240820416866E-003  0.000000000000000E+000
   2.52452143071768     
  0.936462258150449       3.162718150678633E-003  0.000000000000000E+000
  0.195773528480458       4.553926260355393E-003 -2.036228091051797E-004
  0.000000000000000E+000  4.757549069460573E-003   1.00018985600508     
  8.530415517478161E-002 -3.832059877843122E-003  0.000000000000000E+000
   2.52937747529627     
  0.932319101600151       3.346467535361265E-003  0.000000000000000E+000
  0.195085061365489       4.568107543223603E-003 -2.009244041241746E-004
  0.000000000000000E+000  4.769031947347778E-003   1.00018978822073     
  8.557329452672523E-002 -3.778004527992138E-003  0.000000000000000E+000
   2.53336964857759     
  0.927986251584928       3.535462227755561E-003  0.000000000000000E+000
  0.195203435206849       4.579484682449345E-003 -1.983452426285677E-004
  0.000000000000000E+000  4.777829925077913E-003   1.00018983691669     
  8.578968533317764E-002 -3.725837041937094E-003  0.000000000000000E+000
   2.53657643050617     
  0.923457056336885       3.730240913818279E-003  0.000000000000000E+000
  0.194260858593680       4.588632312203507E-003 -1.949629635088713E-004
  0.000000000000000E+000  4.783595275712379E-003   1.00018970449104     
  8.596476393756403E-002 -3.661138327985517E-003  0.000000000000000E+000
   2.53917073812721     
  0.918724734063985       3.928866629792209E-003  0.000000000000000E+000
  0.194586512308661       4.596045017344622E-003 -1.919805343058634E-004
  0.000000000000000E+000  4.788025551650485E-003   1.00018978271391     
  8.610694872141106E-002 -3.602687479738504E-003  0.000000000000000E+000
   2.54127691912336     
  0.913782702004972       4.134308086652536E-003  0.000000000000000E+000
  0.193845943197857       4.602038673999745E-003 -1.879852655868486E-004
  0.000000000000000E+000  4.790023939586593E-003   1.00018966170844     
  8.622320123565815E-002 -3.527381326211214E-003  0.000000000000000E+000
   2.54300051296146     
  0.908624062312831       4.341309162270438E-003  0.000000000000000E+000
  0.193026863369823       4.607147904728416E-003 -1.838312002809893E-004
  0.000000000000000E+000  4.790979105009406E-003   1.00018951584473     
  8.632291762579408E-002 -3.448308216115448E-003  0.000000000000000E+000
   2.54447854490795     
  0.903242385263693       4.554834075679027E-003  0.000000000000000E+000
  0.193883086440792       4.609848934523863E-003 -1.800256858270657E-004
  0.000000000000000E+000  4.789874620350929E-003   1.00018965684658     
  8.637720441492762E-002 -3.374046559017955E-003  0.000000000000000E+000
   2.54528695973631     
  0.897630946103148       4.770477692087010E-003  0.000000000000000E+000
  0.192992779269844       4.611167919606407E-003 -1.750140949246641E-004
  0.000000000000000E+000  4.786182014531071E-003   1.00018948643271     
  8.640621696137923E-002 -3.280794927419589E-003  0.000000000000000E+000
   2.54572398892691     
  0.891783373400719       4.989646083122509E-003  0.000000000000000E+000
  0.194575696414176       4.611117763537492E-003 -1.710793554475111E-004
  0.000000000000000E+000  4.782197118985003E-003   1.00018975341426     
  8.640880906834673E-002 -3.204471814471155E-003  0.000000000000000E+000
   2.54577144303559     
  0.885693421287334       5.213290243712273E-003  0.000000000000000E+000
  0.193651885566169       4.609946998410347E-003 -1.654670862837126E-004
  0.000000000000000E+000  4.775414084694059E-003   1.00018958241492     
  8.639132354808693E-002 -3.100401732891718E-003  0.000000000000000E+000
   2.54552394672366     
  0.879354799790459       5.435549238576376E-003  0.000000000000000E+000
  0.192583813979127       4.610506061392075E-003 -1.598685846122882E-004
  0.000000000000000E+000  4.770374646004363E-003   1.00018934927881     
  8.640615224194614E-002 -2.996952339301912E-003  0.000000000000000E+000
   2.54575264706302     
  0.872761850024891       5.661595916410732E-003  0.000000000000000E+000
  0.194660202621435       4.609356303127350E-003 -1.551744054869121E-004
  0.000000000000000E+000  4.764530708614262E-003   1.00018965348453     
  8.638836806231409E-002 -2.905854043947683E-003  0.000000000000000E+000
   2.54550026898116     
  0.865908887614107       5.888050303986711E-003  0.000000000000000E+000
  0.193621400344000       4.606102170548017E-003 -1.486076786551082E-004
  0.000000000000000E+000  4.754709849203126E-003   1.00018940763844     
  8.633200411461611E-002 -2.783659689199469E-003  0.000000000000000E+000
   2.54467943001002     
  0.858790596690845       6.112150921137999E-003  0.000000000000000E+000
  0.193284556401295       4.604375232316673E-003 -1.426720198345588E-004
  0.000000000000000E+000  4.747047252151231E-003   1.00018924223660     
  8.630375932112760E-002 -2.673387932116881E-003  0.000000000000000E+000
   2.54427336474620     
  0.851402232938537       6.337426796155764E-003  0.000000000000000E+000
  0.195120306928629       4.599681376569846E-003 -1.368638681574388E-004
  0.000000000000000E+000  4.736545244727284E-003   1.00018946214601     
  8.621975064447912E-002 -2.560578550233213E-003  0.000000000000000E+000
   2.54304350332320     
  0.843739242234269       6.559807874772471E-003  0.000000000000000E+000
  0.194059803304299       4.591257408277356E-003 -1.292714495766381E-004
  0.000000000000000E+000  4.720528857853994E-003   1.00018917686578     
  8.606641383635186E-002 -2.418277393319839E-003  0.000000000000000E+000
   2.54078947110511     
  0.835797614343686       6.776554441764220E-003  0.000000000000000E+000
  0.193375771608999       4.584587485173684E-003 -1.223184272779610E-004
  0.000000000000000E+000  4.706905912451645E-003   1.00018887899203     
  8.594538870191412E-002 -2.289867347301976E-003  0.000000000000000E+000
   2.53901178169232     
  0.827574033874230       6.990933322577417E-003  0.000000000000000E+000
  0.195673663576827       4.575845789072998E-003 -1.160835607438573E-004
  0.000000000000000E+000  4.691929349816855E-003   1.00018913501626     
  8.578505295794865E-002 -2.169777927246539E-003  0.000000000000000E+000
   2.53665060093744     
  0.819065622350018       7.200829533666883E-003  0.000000000000000E+000
  0.194945277620718       4.564446983760895E-003 -1.076198209751821E-004
  0.000000000000000E+000  4.672066804736077E-003   1.00018889888985     
  8.557548296386328E-002 -2.012230616879106E-003  0.000000000000000E+000
   2.53355660847437     
  0.810270040767068       7.398615321999188E-003  0.000000000000000E+000
  0.193318443626367       4.557270898688679E-003 -9.915201689594531E-005
  0.000000000000000E+000  4.656422915584625E-003   1.00018838613946     
  8.544478807277754E-002 -1.856743612227576E-003  0.000000000000000E+000
   2.53162760727394     
  0.801185958372473       7.589628713596443E-003  0.000000000000000E+000
  0.194749249244751       4.550550524369667E-003 -9.220621123536139E-005
  0.000000000000000E+000  4.642756735605029E-003   1.00018839929836     
  8.532184791493000E-002 -1.724334508077182E-003  0.000000000000000E+000
   2.52981122865584     
  0.791812627973472       7.772394067772765E-003  0.000000000000000E+000
  0.195970515197587       4.537330567358499E-003 -8.415550965441802E-005
  0.000000000000000E+000  4.621486077012917E-003   1.00018843192996     
  8.507706678853025E-002 -1.569837660791422E-003  0.000000000000000E+000
   2.52618274041578     
  0.782150065254686       7.942422822669317E-003  0.000000000000000E+000
  0.194667173195285       4.520724300503779E-003 -7.459549327226426E-005
  0.000000000000000E+000  4.595319793776044E-003   1.00018798882841     
  8.476874160422726E-002 -1.391207508130306E-003  0.000000000000000E+000
   2.52160149885067     
  0.772199185767239       8.095718475719276E-003  0.000000000000000E+000
  0.193135594651494       4.506772780299488E-003 -6.548198526287136E-005
  0.000000000000000E+000  4.572254765562360E-003   1.00018744921321     
  8.450963568366378E-002 -1.222548721008739E-003  0.000000000000000E+000
   2.51774436864804     
  0.761961923922881       8.235501917519613E-003  0.000000000000000E+000
  0.193489831330453       4.494167483348997E-003 -5.728065542979438E-005
  0.000000000000000E+000  4.551448138778791E-003   1.00018724756935     
  8.427515848216990E-002 -1.068176523015069E-003  0.000000000000000E+000
   2.51424736947274     
  0.751441078648974       8.360036325710233E-003  0.000000000000000E+000
  0.194792427486846       4.477382066707103E-003 -4.878152173036642E-005
  0.000000000000000E+000  4.526163588437469E-003   1.00018729305583     
  8.396191200678274E-002 -9.062392349896916E-004  0.000000000000000E+000
   2.50956602117694     
  0.740640446574066       8.467539394565621E-003  0.000000000000000E+000
  0.193787128407848       4.457537848985421E-003 -3.862180862138978E-005
  0.000000000000000E+000  4.496159657606811E-003   1.00018691441243     
  8.359091778369263E-002 -7.161573910559240E-004  0.000000000000000E+000
   2.50400551450049     
  0.729564815658738       8.549226778783900E-003  0.000000000000000E+000
  0.191690683420347       4.440579976075914E-003 -2.823369236648511E-005
  0.000000000000000E+000  4.468813668442399E-003   1.00018629953881     
  8.327348165670589E-002 -5.236288077961402E-004  0.000000000000000E+000
   2.49923352635225     
  0.718220157151689       8.609815858319162E-003  0.000000000000000E+000
  0.191347672102665       4.425862007649406E-003 -1.911379515936291E-005
  0.000000000000000E+000  4.444975802808769E-003   1.00018601350350     
  8.299722755198391E-002 -3.524624168148313E-004  0.000000000000000E+000
   2.49506764099212     
  0.706613454876314       8.648074977020741E-003  0.000000000000000E+000
  0.190986094758500       4.410042955983579E-003 -9.927979902698101E-006
  0.000000000000000E+000  4.419970935886277E-003   1.00018570770929     
  8.269927217436523E-002 -1.797354376343388E-004  0.000000000000000E+000
   2.49055737863431     
  0.694752788406665       8.662372544331720E-003  0.000000000000000E+000
  0.190795684761042       4.391823160849506E-003 -6.148892060495796E-007
  0.000000000000000E+000  4.392438050055555E-003   1.00018536077156     
  8.235513325996044E-002 -3.964082971462483E-006  0.000000000000000E+000
   2.48533020515785     
  0.682647343539202       8.651157664054129E-003  0.000000000000000E+000
  0.190034706846973       4.371481653959780E-003  9.256724199088384E-006
  0.000000000000000E+000  4.380738378158869E-003   1.00018492761773     
  8.197018545811888E-002  1.812004587180446E-004  0.000000000000000E+000
   2.47946509903207     
  0.670307422204054       8.610315629881678E-003  0.000000000000000E+000
  0.188096284827225       4.352484671755560E-003  1.975824896542952E-005
  0.000000000000000E+000  4.372242920720990E-003   1.00018433523730     
  8.160947780586075E-002  3.768573053261520E-004  0.000000000000000E+000
   2.47394515893620     
  0.657744432187388       8.537819516044324E-003  0.000000000000000E+000
  0.186497991910073       4.335668609436240E-003  2.974491190225602E-005
  0.000000000000000E+000  4.365413521338496E-003   1.00018377499618     
  8.128887729079831E-002  5.636171579478016E-004  0.000000000000000E+000
   2.46901664925561     
  0.644970813927204       8.436245338104848E-003  0.000000000000000E+000
  0.185499289142854       4.318463278053885E-003  3.905908820882777E-005
  0.000000000000000E+000  4.357522366262713E-003   1.00018329741011     
  8.096023970620528E-002  7.385173475550832E-004  0.000000000000000E+000
   2.46395021154172     
  0.632000051176599       8.304733450058579E-003  0.000000000000000E+000
  0.184099827437649       4.300031540502560E-003  4.829007380611337E-005
  0.000000000000000E+000  4.348321614308673E-003   1.00018273102739     
  8.060772887597276E-002  9.118474827092288E-004  0.000000000000000E+000
   2.45850140498262     
  0.618846621299056       8.142643113908310E-003  0.000000000000000E+000
  0.182585418677263       4.280643404272723E-003  5.739234035861275E-005
  0.000000000000000E+000  4.338035744631335E-003   1.00018212227141     
  8.023639302899757E-002  1.082627738386108E-003  0.000000000000000E+000
   2.45274452275111     
  0.605525942452643       7.949576021555563E-003  0.000000000000000E+000
  0.181063847681116       4.260205744865219E-003  6.631517959937533E-005
  0.000000000000000E+000  4.326520924464594E-003   1.00018148354512     
  7.984448054674109E-002  1.250109107176794E-003  0.000000000000000E+000
   2.44665024543079     
  0.592054310759683       7.725396929789890E-003  0.000000000000000E+000
  0.179762159942584       4.238825483706386E-003  7.511268169031430E-005
  0.000000000000000E+000  4.313938165396700E-003   1.00018086719870     
  7.943394028588224E-002  1.414961200403150E-003  0.000000000000000E+000
   2.44024513452863     
  0.578448841139469       7.469587338919363E-003  0.000000000000000E+000
  0.177291988202342       4.218346186339864E-003  8.419542033975481E-005
  0.000000000000000E+000  4.302541606679619E-003   1.00017998418175     
  7.903906328556973E-002  1.583942124127403E-003  0.000000000000000E+000
   2.43405164304621     
  0.564727426131715       7.179798545920949E-003  0.000000000000000E+000
  0.174528579815615       4.200364961798597E-003  9.284258512407212E-005
  0.000000000000000E+000  4.293207546922669E-003   1.00017898370228     
  7.868987006687950E-002  1.744920166753801E-003  0.000000000000000E+000
   2.42853316284060     
  0.550908452145140       6.860707846468249E-003  0.000000000000000E+000
  0.172753088303807       4.183070972923324E-003  1.005527327064666E-004
  0.000000000000000E+000  4.283623705629791E-003   1.00017809919831     
  7.835213792955176E-002  1.889401659193768E-003  0.000000000000000E+000
   2.42315785101980     
  0.537010910895377       6.513416561857800E-003  0.000000000000000E+000
  0.170633918494104       4.164282538036650E-003  1.078303710756054E-004
  0.000000000000000E+000  4.272112909112256E-003   1.00017706979014     
  7.798476789630529E-002  2.025868341313586E-003  0.000000000000000E+000
   2.41728744398309     
  0.523054228165777       6.139328491792367E-003  0.000000000000000E+000
  0.168140068441517       4.144311351753263E-003  1.146309674990120E-004
  0.000000000000000E+000  4.258942319252275E-003   1.00017588525204     
  7.759421039644022E-002  2.152975011016339E-003  0.000000000000000E+000
   2.41102666586296     
  0.509058155752480       5.740143054580419E-003  0.000000000000000E+000
  0.165641618533527       4.124508235195419E-003  1.209443820604945E-004
  0.000000000000000E+000  4.245452617255914E-003   1.00017459253944     
  7.720604963762794E-002  2.270424266949192E-003  0.000000000000000E+000
   2.40477460605551     
  0.495042659692362       5.317842972884984E-003  0.000000000000000E+000
  0.163155668637728       4.105839334250645E-003  1.267599898385622E-004
  0.000000000000000E+000  4.232599324089207E-003   1.00017319533440     
  7.683842530956786E-002  2.378257634833297E-003  0.000000000000000E+000
   2.39881456289735     
  0.481027806142041       4.874676585191666E-003  0.000000000000000E+000
  0.160706256358253       4.088883347451272E-003  1.320623614979332E-004
  0.000000000000000E+000  4.220945708949205E-003   1.00017173433597     
  7.650221762665134E-002  2.476321225383615E-003  0.000000000000000E+000
   2.39331882061532     
  0.467033646316841       4.413134998349662E-003  0.000000000000000E+000
  0.158667578898303       4.074035670316922E-003  1.368601120253142E-004
  0.000000000000000E+000  4.210895782342236E-003   1.00017028736092     
  7.620439093359864E-002  2.564603315476489E-003  0.000000000000000E+000
   2.38839226379466     
  0.453080108148714       3.935745123473622E-003  0.000000000000000E+000
  0.156340647985417       4.062585562957650E-003  1.413574074126104E-004
  0.000000000000000E+000  4.203942970370260E-003   1.00016872323439     
  7.596804740692725E-002  2.646441784905372E-003  0.000000000000000E+000
   2.38438534678297     
  0.439186917314490       3.444124449314979E-003  0.000000000000000E+000
  0.153931690310628       4.055538597339001E-003  1.452181971040599E-004
  0.000000000000000E+000  4.200756794443061E-003   1.00016718897757     
  7.581242659609441E-002  2.716629853351316E-003  0.000000000000000E+000
   2.38160869327513     
  0.425373323286012       2.943537917647252E-003  0.000000000000000E+000
  0.155084908320987       4.048472285149458E-003  1.480626158190525E-004
  0.000000000000000E+000  4.196534900968510E-003   1.00016570401503     
  7.565583393437203E-002  2.770685150511042E-003  0.000000000000000E+000
   2.37880029471987     
  0.411658191042757       2.437221773305309E-003  0.000000000000000E+000
  0.160567427823480       4.026217161094784E-003  1.514245774805897E-004
  0.000000000000000E+000  4.177641738575374E-003   1.00016504200727     
  7.521215168607956E-002  2.840626317262993E-003  0.000000000000000E+000
   2.37143702671914     
  0.398060300010423       1.916233981970908E-003  0.000000000000000E+000
  0.165132984432375       3.971112100259882E-003  1.591382164455447E-004
  0.000000000000000E+000  4.130250316705426E-003   1.00016489030979     
  7.414406559326245E-002  2.996394256771041E-003  0.000000000000000E+000
   2.35405839773934     
  0.384598635456386       1.352902573853140E-003  0.000000000000000E+000
  0.163585110058875       3.876565740691773E-003  1.720838486637047E-004
  0.000000000000000E+000  4.048649589355477E-003   1.00016286433250     
  7.232473454461200E-002  3.248168371195162E-003  0.000000000000000E+000
   2.32436355352794     
  0.371291267288200       7.281164213263902E-004  0.000000000000000E+000
  0.156967165439482       3.752059490313670E-003  1.860613589028908E-004
  0.000000000000000E+000  3.938120849216561E-003   1.00015983959096     
  6.993738747824063E-002  3.513908162218964E-003  0.000000000000000E+000
   2.28492568774420     
  0.358154780898738       4.178473641569574E-005  0.000000000000000E+000
  0.150890275740039       3.610796944018741E-003  1.976535610596905E-004
  0.000000000000000E+000  3.808450505078431E-003   1.00015736657091     
  6.723620795507770E-002  3.731140080488139E-003  0.000000000000000E+000
   2.23955076446577     
  0.345204555188213      -6.996594131643285E-004  0.000000000000000E+000
  0.144028059137099       3.464405032727419E-003  2.076232265405067E-004
  0.000000000000000E+000  3.672028259267926E-003   1.00015466851624     
  6.443811037914890E-002  3.911848840696024E-003  0.000000000000000E+000
   2.19156344503985     
  0.332455505085775      -1.498146808410845E-003  0.000000000000000E+000
  0.136348626302834       3.324791846847948E-003  2.156752080608373E-004
  0.000000000000000E+000  3.540467054908786E-003   1.00015188661441     
  6.176632308353874E-002  4.054581322143810E-003  0.000000000000000E+000
   2.14468201788643     
  0.319920537181743      -2.339667901782980E-003  0.000000000000000E+000
  0.130276504635276       3.192386208221302E-003  2.206103174119761E-004
  0.000000000000000E+000  3.412996525633278E-003   1.00014961138144     
  5.923237436990471E-002  4.141078985216744E-003  0.000000000000000E+000
   2.09922120511039     
  0.307611656831778      -3.214917519367286E-003  0.000000000000000E+000
  0.123454270856655       3.063839455184235E-003  2.233895021490543E-004
  0.000000000000000E+000  3.287228957333290E-003   1.00014761159220     
  5.677324651162838E-002  4.186621342590527E-003  0.000000000000000E+000
   2.05412787162880     
  0.295539909591286      -4.117285986877651E-003  0.000000000000000E+000
  0.115627337290334       2.940598869687228E-003  2.246245773670202E-004
  0.000000000000000E+000  3.165223447054248E-003   1.00014576102341     
  5.441453751810860E-002  4.202751258386634E-003  0.000000000000000E+000
   2.00988385983292     
  0.283715218424319      -5.040365564571752E-003  0.000000000000000E+000
  0.107589823585840       2.823667439283264E-003  2.245798071839574E-004
  0.000000000000000E+000  3.048247246467222E-003   1.00014412781903     
  5.217456039394310E-002  4.194718386279508E-003  0.000000000000000E+000
   1.96688874259252     
  0.272146384621058      -5.978022424434283E-003  0.000000000000000E+000
  9.759467630556173E-002  2.714421867273510E-003  2.240678855619725E-004
  0.000000000000000E+000  2.938489752835483E-003   1.00014255654871     
  5.007764029413490E-002  4.175757509569594E-003  0.000000000000000E+000
   1.92568311502311     
  0.260841459952367      -6.928699530984975E-003  0.000000000000000E+000
  8.584999619483824E-002  2.615220053535098E-003  2.230398193022668E-004
  0.000000000000000E+000  2.838259872837365E-003   1.00014114698963     
  4.816753147822934E-002  4.147551244548511E-003  0.000000000000000E+000
   1.88724595287282     
  0.249806769810523      -7.883567295849768E-003  0.000000000000000E+000