variables = "X","Y","Z","HL","rh","u","v","w","p","T","vor_x","vor_y","vor_z","Vor","Q_x","Q_y","Q_z","Q_cri"
 zone i=         101  j=          81
 0.300000D+02  0.000000D+00  0.000000D+00 1 0.999999D+00  0.997523D+00  0.755596D-01  0.000000D+00  0.999999D+00  0.100000D+01  0.000000D+00  0.000000D+00  0.100132D-02  0.100132D-02  0.000000D+00  0.000000D+00 -0.733983D-06 -0.733983D-06
 0.278343D+02  0.000000D+00  0.000000D+00 1 0.999999D+00  0.997530D+00  0.764675D-01  0.000000D+00  0.999999D+00  0.100000D+01  0.000000D+00  0.000000D+00  0.511634D-02  0.511634D-02  0.000000D+00  0.000000D+00 -0.261173D-05 -0.261173D-05
 0.258303D+02  0.000000D+00  0.000000D+00 1 0.999999D+00  0.997565D+00  0.764437D-01  0.000000D+00  0.999999D+00  0.100000D+01  0.000000D+00  0.000000D+00  0.124949D-01  0.124949D-01  0.000000D+00  0.000000D+00  0.557497D-05  0.557497D-05
 0.239758D+02  0.000000D+00  0.000000D+00 1 0.100000D+01  0.997587D+00  0.743252D-01  0.000000D+00  0.100000D+01  0.100000D+01  0.000000D+00  0.000000D+00  0.185258D-01  0.185258D-01  0.000000D+00  0.000000D+00  0.114489D-04  0.114489D-04
 0.222598D+02  0.000000D+00  0.000000D+00 1 0.100000D+01  0.997591D+00  0.721349D-01  0.000000D+00  0.100000D+01  0.100000D+01  0.000000D+00  0.000000D+00  0.232089D-01  0.232089D-01  0.000000D+00  0.000000D+00  0.133783D-04  0.133783D-04
 0.206719D+02  0.000000D+00  0.000000D+00 1 0.100000D+01  0.997591D+00  0.702811D-01  0.000000D+00  0.100000D+01  0.100000D+01  0.000000D+00  0.000000D+00  0.266650D-01  0.266650D-01  0.000000D+00  0.000000D+00  0.142349D-04  0.142349D-04
 0.192025D+02  0.000000D+00  0.000000D+00 1 0.100000D+01  0.997580D+00  0.686914D-01  0.000000D+00  0.100000D+01  0.100000D+01  0.000000D+00  0.000000D+00  0.303012D-01  0.303012D-01  0.000000D+00  0.000000D+00  0.153132D-04  0.153132D-04
 0.178428D+02  0.000000D+00  0.000000D+00 1 0.100000D+01  0.997560D+00  0.672646D-01  0.000000D+00  0.100000D+01  0.100000D+01  0.000000D+00  0.000000D+00  0.373438D-01  0.373438D-01  0.000000D+00  0.000000D+00  0.190892D-04  0.190892D-04
 0.165846D+02  0.000000D+00  0.000000D+00 1 0.100000D+01  0.997544D+00  0.658496D-01  0.000000D+00  0.100000D+01  0.100000D+01  0.000000D+00  0.000000D+00  0.474926D-01  0.474926D-01  0.000000D+00  0.000000D+00  0.278469D-04  0.278469D-04
 0.154203D+02  0.000000D+00  0.000000D+00 1 0.100000D+01  0.997546D+00  0.643584D-01  0.000000D+00  0.100000D+01  0.100000D+01  0.000000D+00  0.000000D+00  0.586119D-01  0.586119D-01  0.000000D+00  0.000000D+00  0.390605D-04  0.390605D-04
 0.143429D+02  0.000000D+00  0.000000D+00 1 0.100000D+01  0.997567D+00  0.628124D-01  0.000000D+00  0.100000D+01  0.100000D+01  0.000000D+00  0.000000D+00  0.733727D-01  0.733727D-01  0.000000D+00  0.000000D+00  0.542939D-04  0.542939D-04
 0.133460D+02  0.000000D+00  0.000000D+00 1 0.100000D+01  0.997603D+00  0.612575D-01  0.000000D+00  0.100000D+01  0.100000D+01  0.000000D+00  0.000000D+00  0.933293D-01  0.933293D-01  0.000000D+00  0.000000D+00  0.739322D-04  0.739322D-04
 0.124235D+02  0.000000D+00  0.000000D+00 1 0.100000D+01  0.997647D+00  0.597501D-01  0.000000D+00  0.100000D+01  0.100000D+01  0.000000D+00  0.000000D+00  0.120151D+00  0.120151D+00  0.000000D+00  0.000000D+00  0.982016D-04  0.982016D-04
 0.115698D+02  0.000000D+00  0.000000D+00 1 0.100000D+01  0.997688D+00  0.583345D-01  0.000000D+00  0.100000D+01  0.100000D+01  0.000000D+00  0.000000D+00  0.156224D+00  0.156224D+00  0.000000D+00  0.000000D+00  0.128228D-03  0.128228D-03
 0.107799D+02  0.000000D+00  0.000000D+00 1 0.100000D+01  0.997721D+00  0.570159D-01  0.000000D+00  0.100000D+01  0.100000D+01  0.000000D+00  0.000000D+00  0.198117D+00  0.198117D+00  0.000000D+00  0.000000D+00  0.165005D-03  0.165005D-03
 0.100489D+02  0.000000D+00  0.000000D+00 1 0.100000D+01  0.997749D+00  0.557838D-01  0.000000D+00  0.100000D+01  0.100000D+01  0.000000D+00  0.000000D+00  0.241777D+00  0.241777D+00  0.000000D+00  0.000000D+00  0.203084D-03  0.203084D-03
 0.937250D+01  0.000000D+00  0.000000D+00 1 0.100000D+01  0.997774D+00  0.546446D-01  0.000000D+00  0.100000D+01  0.100000D+01  0.000000D+00  0.000000D+00  0.286851D+00  0.286851D+00  0.000000D+00  0.000000D+00  0.238945D-03  0.238945D-03
 0.874659D+01  0.000000D+00  0.000000D+00 1 0.100000D+01  0.997794D+00  0.536096D-01  0.000000D+00  0.100000D+01  0.100000D+01  0.000000D+00  0.000000D+00  0.333538D+00  0.333538D+00  0.000000D+00  0.000000D+00  0.270485D-03  0.270485D-03
 0.816740D+01  0.000000D+00  0.000000D+00 1 0.100000D+01  0.997812D+00  0.526775D-01  0.000000D+00  0.100000D+01  0.100000D+01  0.000000D+00  0.000000D+00  0.380941D+00  0.380941D+00  0.000000D+00  0.000000D+00  0.301022D-03  0.301022D-03
 0.763145D+01  0.000000D+00  0.000000D+00 1 0.100000D+01  0.997830D+00  0.518354D-01  0.000000D+00  0.100000D+01  0.100000D+01  0.000000D+00  0.000000D+00  0.428217D+00  0.428217D+00  0.000000D+00  0.000000D+00  0.331487D-03  0.331487D-03
 0.713550D+01  0.000000D+00  0.000000D+00 1 0.100000D+01  0.997851D+00  0.510739D-01  0.000000D+00  0.100000D+01  0.100000D+01  0.000000D+00  0.000000D+00  0.476453D+00  0.476453D+00  0.000000D+00  0.000000D+00  0.359988D-03  0.359988D-03
 0.667657D+01  0.000000D+00  0.000000D+00 1 0.100000D+01  0.997877D+00  0.503851D-01  0.000000D+00  0.100000D+01  0.100000D+01  0.000000D+00  0.000000D+00  0.529225D+00  0.529225D+00  0.000000D+00  0.000000D+00  0.391739D-03  0.391739D-03
 0.625191D+01  0.000000D+00  0.000000D+00 1 0.100000D+01  0.997909D+00  0.497539D-01  0.000000D+00  0.100000D+01  0.100000D+01  0.000000D+00  0.000000D+00  0.588869D+00  0.588869D+00  0.000000D+00  0.000000D+00  0.436987D-03  0.436987D-03
 0.585894D+01  0.000000D+00  0.000000D+00 1 0.100000D+01  0.997935D+00  0.491508D-01  0.000000D+00  0.100000D+01  0.100000D+01  0.000000D+00  0.000000D+00  0.645980D+00  0.645980D+00  0.000000D+00  0.000000D+00  0.510803D-03  0.510803D-03
 0.549530D+01  0.000000D+00  0.000000D+00 1 0.100000D+01  0.997945D+00  0.485386D-01  0.000000D+00  0.100000D+01  0.100000D+01  0.000000D+00  0.000000D+00  0.687706D+00  0.687706D+00  0.000000D+00  0.000000D+00  0.613794D-03  0.613794D-03
 0.515882D+01  0.000000D+00  0.000000D+00 1 0.100000D+01  0.997939D+00  0.478893D-01  0.000000D+00  0.100000D+01  0.100000D+01  0.000000D+00  0.000000D+00  0.716045D+00  0.716045D+00  0.000000D+00  0.000000D+00  0.742890D-03  0.742890D-03
 0.484744D+01  0.000000D+00  0.000000D+00 1 0.100000D+01  0.997916D+00  0.471819D-01  0.000000D+00  0.100000D+01  0.100000D+01  0.000000D+00  0.000000D+00  0.736643D+00  0.736643D+00  0.000000D+00  0.000000D+00  0.909718D-03  0.909718D-03
 0.455932D+01  0.000000D+00  0.000000D+00 1 0.100000D+01  0.997875D+00  0.464020D-01  0.000000D+00  0.100000D+01  0.100000D+01  0.000000D+00  0.000000D+00  0.748500D+00  0.748500D+00  0.000000D+00  0.000000D+00  0.110100D-02  0.110100D-02
 0.429270D+01  0.000000D+00  0.000000D+00 1 0.100000D+01  0.997823D+00  0.455400D-01  0.000000D+00  0.100000D+01  0.100000D+01  0.000000D+00  0.000000D+00  0.744997D+00  0.744997D+00  0.000000D+00  0.000000D+00  0.131068D-02  0.131068D-02
 0.404598D+01  0.000000D+00  0.000000D+00 1 0.100000D+01  0.997767D+00  0.445692D-01  0.000000D+00  0.100000D+01  0.100000D+01  0.000000D+00  0.000000D+00  0.719473D+00  0.719473D+00  0.000000D+00  0.000000D+00  0.156128D-02  0.156128D-02
 0.381768D+01  0.000000D+00  0.000000D+00 1 0.100000D+01  0.997710D+00  0.434420D-01  0.000000D+00  0.100000D+01  0.100000D+01  0.000000D+00  0.000000D+00  0.675310D+00  0.675310D+00  0.000000D+00  0.000000D+00  0.185986D-02  0.185986D-02
 0.360642D+01  0.000000D+00  0.000000D+00 1 0.100000D+01  0.997653D+00  0.421224D-01  0.000000D+00  0.100000D+01  0.100000D+01  0.000000D+00  0.000000D+00  0.616495D+00  0.616495D+00  0.000000D+00  0.000000D+00  0.213181D-02  0.213181D-02
 0.341093D+01  0.000000D+00  0.000000D+00 1 0.100000D+01  0.997595D+00  0.405969D-01  0.000000D+00  0.100001D+01  0.100000D+01  0.000000D+00  0.000000D+00  0.540773D+00  0.540773D+00  0.000000D+00  0.000000D+00  0.230848D-02  0.230848D-02
 0.323004D+01  0.000000D+00  0.000000D+00 1 0.100000D+01  0.997540D+00  0.388573D-01  0.000000D+00  0.100001D+01  0.100000D+01  0.000000D+00  0.000000D+00  0.447769D+00  0.447769D+00  0.000000D+00  0.000000D+00  0.232386D-02  0.232386D-02
 0.306264D+01  0.000000D+00  0.000000D+00 1 0.100000D+01  0.997493D+00  0.368978D-01  0.000000D+00  0.100001D+01  0.100000D+01  0.000000D+00  0.000000D+00  0.346999D+00  0.346999D+00  0.000000D+00  0.000000D+00  0.214951D-02  0.214951D-02
 0.290775D+01  0.000000D+00  0.000000D+00 1 0.100000D+01  0.997463D+00  0.347339D-01  0.000000D+00  0.100001D+01  0.100000D+01  0.000000D+00  0.000000D+00  0.254676D+00  0.254676D+00  0.000000D+00  0.000000D+00  0.181584D-02  0.181584D-02
 0.276441D+01  0.000000D+00  0.000000D+00 1 0.100001D+01  0.997455D+00  0.323963D-01  0.000000D+00  0.100001D+01  0.100000D+01  0.000000D+00  0.000000D+00  0.173542D+00  0.173542D+00  0.000000D+00  0.000000D+00  0.136865D-02  0.136865D-02
 0.263178D+01  0.000000D+00  0.000000D+00 1 0.100001D+01  0.997459D+00  0.299167D-01  0.000000D+00  0.100001D+01  0.100000D+01  0.000000D+00  0.000000D+00  0.108575D+00  0.108575D+00  0.000000D+00  0.000000D+00  0.883509D-03  0.883509D-03
 0.250904D+01  0.000000D+00  0.000000D+00 1 0.100001D+01  0.997456D+00  0.273152D-01  0.000000D+00  0.100001D+01  0.100000D+01  0.000000D+00  0.000000D+00  0.752092D-01  0.752092D-01  0.000000D+00  0.000000D+00  0.593883D-03  0.593883D-03
 0.239547D+01  0.000000D+00  0.000000D+00 1 0.100001D+01  0.997421D+00  0.246093D-01  0.000000D+00  0.100001D+01  0.100000D+01  0.000000D+00  0.000000D+00  0.764207D-01  0.764207D-01  0.000000D+00  0.000000D+00  0.645286D-03  0.645286D-03
 0.229038D+01  0.000000D+00  0.000000D+00 1 0.100001D+01  0.997292D+00  0.218258D-01  0.000000D+00  0.100001D+01  0.100000D+01  0.000000D+00  0.000000D+00  0.129550D+00  0.129550D+00  0.000000D+00  0.000000D+00  0.141741D-02  0.141741D-02
 0.219313D+01  0.000000D+00  0.000000D+00 1 0.100001D+01  0.996939D+00  0.189716D-01  0.000000D+00  0.100001D+01  0.100000D+01  0.000000D+00  0.000000D+00  0.286025D+00  0.286025D+00  0.000000D+00  0.000000D+00  0.394539D-02  0.394539D-02
 0.210314D+01  0.000000D+00  0.000000D+00 1 0.100001D+01  0.996151D+00  0.160519D-01  0.000000D+00  0.100001D+01  0.100000D+01  0.000000D+00  0.000000D+00  0.627580D+00  0.627580D+00  0.000000D+00  0.000000D+00  0.101126D-01  0.101126D-01
 0.201987D+01  0.000000D+00  0.000000D+00 1 0.100001D+01  0.994615D+00  0.130758D-01  0.000000D+00  0.100001D+01  0.100000D+01  0.000000D+00  0.000000D+00  0.126986D+01  0.126986D+01  0.000000D+00  0.000000D+00  0.231276D-01  0.231276D-01
 0.194281D+01  0.000000D+00  0.000000D+00 1 0.100001D+01  0.991885D+00  0.100469D-01  0.000000D+00  0.100001D+01  0.100000D+01  0.000000D+00  0.000000D+00  0.235541D+01  0.235541D+01  0.000000D+00  0.000000D+00  0.476990D-01  0.476990D-01
 0.187151D+01  0.000000D+00  0.000000D+00 1 0.100001D+01  0.987384D+00  0.696561D-02  0.000000D+00  0.100001D+01  0.100000D+01  0.000000D+00  0.000000D+00  0.403435D+01  0.403435D+01  0.000000D+00  0.000000D+00  0.904812D-01  0.904812D-01
 0.180553D+01  0.000000D+00  0.000000D+00 1 0.100001D+01  0.980440D+00  0.383384D-02  0.000000D+00  0.100002D+01  0.100000D+01  0.000000D+00  0.000000D+00  0.642543D+01  0.642543D+01  0.000000D+00  0.000000D+00  0.158541D+00  0.158541D+00
 0.174447D+01  0.000000D+00  0.000000D+00 1 0.100001D+01  0.970365D+00  0.648471D-03  0.000000D+00  0.100002D+01  0.100001D+01  0.000000D+00  0.000000D+00  0.956268D+01  0.956268D+01  0.000000D+00  0.000000D+00  0.260546D+00  0.260546D+00
 0.168797D+01  0.000000D+00  0.000000D+00 1 0.100001D+01  0.956588D+00 -0.261056D-02  0.000000D+00  0.100002D+01  0.100001D+01  0.000000D+00  0.000000D+00  0.133360D+02  0.133360D+02  0.000000D+00  0.000000D+00  0.403523D+00  0.403523D+00
 0.163569D+01  0.000000D+00  0.000000D+00 1 0.100001D+01  0.938818D+00 -0.593575D-02  0.000000D+00  0.100002D+01  0.100001D+01  0.000000D+00  0.000000D+00  0.174505D+02  0.174505D+02  0.000000D+00  0.000000D+00  0.579211D+00  0.579211D+00
 0.158731D+01  0.000000D+00  0.000000D+00 1 0.100001D+01  0.917178D+00 -0.932274D-02  0.000000D+00  0.100002D+01  0.100001D+01  0.000000D+00  0.000000D+00  0.214025D+02  0.214025D+02  0.000000D+00  0.000000D+00  0.785493D+00  0.785493D+00
 0.154255D+01  0.000000D+00  0.000000D+00 1 0.100001D+01  0.893255D+00 -0.127414D-01  0.000000D+00  0.100002D+01  0.100001D+01  0.000000D+00  0.000000D+00  0.236942D+02  0.236942D+02  0.000000D+00  0.000000D+00  0.936243D+00  0.936243D+00
 0.150112D+01  0.000000D+00  0.000000D+00 1 0.100001D+01  0.869907D+00 -0.160930D-01  0.000000D+00  0.100002D+01  0.100001D+01  0.000000D+00  0.000000D+00  0.235117D+02  0.235117D+02  0.000000D+00  0.000000D+00  0.968244D+00  0.968244D+00
 0.146279D+01  0.000000D+00  0.000000D+00 1 0.100002D+01  0.848698D+00 -0.192421D-01  0.000000D+00  0.100002D+01  0.100001D+01  0.000000D+00  0.000000D+00  0.224183D+02  0.224183D+02  0.000000D+00  0.000000D+00  0.911476D+00  0.911476D+00
 0.142732D+01  0.000000D+00  0.000000D+00 1 0.100002D+01  0.829483D+00 -0.220793D-01  0.000000D+00  0.100002D+01  0.100001D+01  0.000000D+00  0.000000D+00  0.215218D+02  0.215218D+02  0.000000D+00  0.000000D+00  0.838722D+00  0.838722D+00
 0.139449D+01  0.000000D+00  0.000000D+00 1 0.100002D+01  0.811879D+00 -0.245767D-01  0.000000D+00  0.100003D+01  0.100001D+01  0.000000D+00  0.000000D+00  0.206991D+02  0.206991D+02  0.000000D+00  0.000000D+00  0.760774D+00  0.760774D+00
 0.136412D+01  0.000000D+00  0.000000D+00 1 0.100002D+01  0.795644D+00 -0.267899D-01  0.000000D+00  0.100003D+01  0.100001D+01  0.000000D+00  0.000000D+00  0.199105D+02  0.199105D+02  0.000000D+00  0.000000D+00  0.713127D+00  0.713127D+00
 0.133601D+01  0.000000D+00  0.000000D+00 1 0.100002D+01  0.780585D+00 -0.287827D-01  0.000000D+00  0.100003D+01  0.100001D+01  0.000000D+00  0.000000D+00  0.191590D+02  0.191590D+02  0.000000D+00  0.000000D+00  0.666506D+00  0.666506D+00
 0.131001D+01  0.000000D+00  0.000000D+00 1 0.100002D+01  0.766560D+00 -0.306031D-01  0.000000D+00  0.100003D+01  0.100001D+01  0.000000D+00  0.000000D+00  0.184825D+02  0.184825D+02  0.000000D+00  0.000000D+00  0.646006D+00  0.646006D+00
 0.128594D+01  0.000000D+00  0.000000D+00 1 0.100002D+01  0.753471D+00 -0.323539D-01  0.000000D+00  0.100003D+01  0.100001D+01  0.000000D+00  0.000000D+00  0.179357D+02  0.179357D+02  0.000000D+00  0.000000D+00  0.674533D+00  0.674533D+00
 0.126367D+01  0.000000D+00  0.000000D+00 1 0.100003D+01  0.741262D+00 -0.341493D-01  0.000000D+00  0.100004D+01  0.100001D+01  0.000000D+00  0.000000D+00  0.175549D+02  0.175549D+02  0.000000D+00  0.000000D+00  0.752114D+00  0.752114D+00
 0.124306D+01  0.000000D+00  0.000000D+00 1 0.100003D+01  0.729899D+00 -0.359967D-01  0.000000D+00  0.100004D+01  0.100001D+01  0.000000D+00  0.000000D+00  0.173312D+02  0.173312D+02  0.000000D+00  0.000000D+00  0.805612D+00  0.805612D+00
 0.122399D+01  0.000000D+00  0.000000D+00 1 0.100003D+01  0.719329D+00 -0.378349D-01  0.000000D+00  0.100004D+01  0.100001D+01  0.000000D+00  0.000000D+00  0.172341D+02  0.172341D+02  0.000000D+00  0.000000D+00  0.852957D+00  0.852957D+00
 0.120635D+01  0.000000D+00  0.000000D+00 1 0.100003D+01  0.709489D+00 -0.396625D-01  0.000000D+00  0.100004D+01  0.100001D+01  0.000000D+00  0.000000D+00  0.172177D+02  0.172177D+02  0.000000D+00  0.000000D+00  0.923043D+00  0.923043D+00
 0.119002D+01  0.000000D+00  0.000000D+00 1 0.100003D+01  0.700305D+00 -0.413988D-01  0.000000D+00  0.100004D+01  0.100001D+01  0.000000D+00  0.000000D+00  0.172162D+02  0.172162D+02  0.000000D+00  0.000000D+00  0.895343D+00  0.895343D+00
 0.117491D+01  0.000000D+00  0.000000D+00 1 0.100003D+01  0.691693D+00 -0.430769D-01  0.000000D+00  0.100005D+01  0.100001D+01  0.000000D+00  0.000000D+00  0.172087D+02  0.172087D+02  0.000000D+00  0.000000D+00  0.100828D+01  0.100828D+01
 0.116093D+01  0.000000D+00  0.000000D+00 1 0.100004D+01  0.683556D+00 -0.446941D-01  0.000000D+00  0.100005D+01  0.100001D+01  0.000000D+00  0.000000D+00  0.171182D+02  0.171182D+02  0.000000D+00  0.000000D+00  0.962037D+00  0.962037D+00
 0.114799D+01  0.000000D+00  0.000000D+00 1 0.100004D+01  0.675766D+00 -0.462724D-01  0.000000D+00  0.100005D+01  0.100001D+01  0.000000D+00  0.000000D+00  0.169505D+02  0.169505D+02  0.000000D+00  0.000000D+00  0.110621D+01  0.110621D+01
 0.113602D+01  0.000000D+00  0.000000D+00 1 0.100004D+01  0.668200D+00 -0.478854D-01  0.000000D+00  0.100005D+01  0.100001D+01  0.000000D+00  0.000000D+00  0.166477D+02  0.166477D+02  0.000000D+00  0.000000D+00  0.114064D+01  0.114064D+01
 0.112494D+01  0.000000D+00  0.000000D+00 1 0.100004D+01  0.660759D+00 -0.493512D-01  0.000000D+00  0.100006D+01  0.100001D+01  0.000000D+00  0.000000D+00  0.161977D+02  0.161977D+02  0.000000D+00  0.000000D+00  0.101219D+01  0.101219D+01
 0.111469D+01  0.000000D+00  0.000000D+00 1 0.100004D+01  0.653385D+00 -0.507612D-01  0.000000D+00  0.100006D+01  0.100002D+01  0.000000D+00  0.000000D+00  0.156686D+02  0.156686D+02  0.000000D+00  0.000000D+00  0.116432D+01  0.116432D+01
 0.110520D+01  0.000000D+00  0.000000D+00 1 0.100004D+01  0.646064D+00 -0.521153D-01  0.000000D+00  0.100006D+01  0.100002D+01  0.000000D+00  0.000000D+00  0.150181D+02  0.150181D+02  0.000000D+00  0.000000D+00  0.100341D+01  0.100341D+01
 0.109642D+01  0.000000D+00  0.000000D+00 1 0.100005D+01  0.638746D+00 -0.532268D-01  0.000000D+00  0.100006D+01  0.100002D+01  0.000000D+00  0.000000D+00  0.142978D+02  0.142978D+02  0.000000D+00  0.000000D+00  0.834787D+00  0.834787D+00
 0.108830D+01  0.000000D+00  0.000000D+00 1 0.100005D+01  0.631361D+00 -0.543020D-01  0.000000D+00  0.100007D+01  0.100002D+01  0.000000D+00  0.000000D+00  0.135152D+02  0.135152D+02  0.000000D+00  0.000000D+00  0.990310D+00  0.990310D+00
 0.108078D+01  0.000000D+00  0.000000D+00 1 0.100005D+01  0.623870D+00 -0.553451D-01  0.000000D+00  0.100007D+01  0.100002D+01  0.000000D+00  0.000000D+00  0.125014D+02  0.125014D+02  0.000000D+00  0.000000D+00  0.795578D+00  0.795578D+00
 0.107383D+01  0.000000D+00  0.000000D+00 1 0.100005D+01  0.616198D+00 -0.562547D-01  0.000000D+00  0.100007D+01  0.100002D+01  0.000000D+00  0.000000D+00  0.112533D+02  0.112533D+02  0.000000D+00  0.000000D+00  0.740229D+00  0.740229D+00
 0.106739D+01  0.000000D+00  0.000000D+00 1 0.100005D+01  0.608222D+00 -0.571649D-01  0.000000D+00  0.100007D+01  0.100002D+01  0.000000D+00  0.000000D+00  0.967224D+01  0.967224D+01  0.000000D+00  0.000000D+00  0.715926D+00  0.715926D+00
 0.106143D+01  0.000000D+00  0.000000D+00 1 0.100005D+01  0.599819D+00 -0.579989D-01  0.000000D+00  0.100008D+01  0.100002D+01  0.000000D+00  0.000000D+00  0.760439D+01  0.760439D+01  0.000000D+00  0.000000D+00  0.481643D+00  0.481643D+00
 0.105592D+01  0.000000D+00  0.000000D+00 1 0.100005D+01  0.590807D+00 -0.587513D-01  0.000000D+00  0.100008D+01  0.100003D+01  0.000000D+00  0.000000D+00  0.503444D+01  0.503444D+01  0.000000D+00  0.000000D+00  0.353950D+00  0.353950D+00
 0.105082D+01  0.000000D+00  0.000000D+00 1 0.100006D+01  0.581017D+00 -0.594793D-01  0.000000D+00  0.100008D+01  0.100003D+01  0.000000D+00  0.000000D+00  0.188840D+01  0.188840D+01  0.000000D+00  0.000000D+00  0.122863D+00  0.122863D+00
 0.104610D+01  0.000000D+00  0.000000D+00 1 0.100005D+01  0.570338D+00 -0.600182D-01  0.000000D+00  0.100008D+01  0.100003D+01  0.000000D+00  0.000000D+00 -0.177573D+01  0.177573D+01  0.000000D+00  0.000000D+00 -0.797181D-01 -0.797181D-01
 0.104174D+01  0.000000D+00  0.000000D+00 1 0.100006D+01  0.558590D+00 -0.604002D-01  0.000000D+00  0.100009D+01  0.100003D+01  0.000000D+00  0.000000D+00 -0.584234D+01  0.584234D+01  0.000000D+00  0.000000D+00 -0.265256D+00 -0.265256D+00
 0.103770D+01  0.000000D+00  0.000000D+00 1 0.100005D+01  0.545597D+00 -0.608098D-01  0.000000D+00  0.100009D+01  0.100004D+01  0.000000D+00  0.000000D+00 -0.105124D+02  0.105124D+02  0.000000D+00  0.000000D+00 -0.606958D+00 -0.606958D+00
 0.103396D+01  0.000000D+00  0.000000D+00 1 0.100005D+01  0.531266D+00 -0.610031D-01  0.000000D+00  0.100009D+01  0.100004D+01  0.000000D+00  0.000000D+00 -0.161180D+02  0.161180D+02  0.000000D+00  0.000000D+00  0.127683D+00  0.127683D+00
 0.103050D+01  0.000000D+00  0.000000D+00 1 0.100005D+01  0.515388D+00 -0.608547D-01  0.000000D+00  0.100009D+01  0.100004D+01  0.000000D+00  0.000000D+00 -0.225328D+02  0.225328D+02  0.000000D+00  0.000000D+00  0.809962D+00  0.809962D+00
 0.102729D+01  0.000000D+00  0.000000D+00 1 0.100005D+01  0.497739D+00 -0.607459D-01  0.000000D+00  0.100009D+01  0.100005D+01  0.000000D+00  0.000000D+00 -0.297685D+02  0.297685D+02  0.000000D+00  0.000000D+00 -0.107806D+00 -0.107806D+00
 0.102433D+01  0.000000D+00  0.000000D+00 1 0.100004D+01  0.478212D+00 -0.605292D-01  0.000000D+00  0.100009D+01  0.100006D+01  0.000000D+00  0.000000D+00 -0.382600D+02  0.382600D+02  0.000000D+00  0.000000D+00  0.304796D+01  0.304796D+01
 0.102159D+01  0.000000D+00  0.000000D+00 1 0.100003D+01  0.456693D+00 -0.598720D-01  0.000000D+00  0.100010D+01  0.100006D+01  0.000000D+00  0.000000D+00 -0.478121D+02  0.478121D+02  0.000000D+00  0.000000D+00  0.773574D+01  0.773574D+01
 0.101905D+01  0.000000D+00  0.000000D+00 1 0.100003D+01  0.432955D+00 -0.590131D-01  0.000000D+00  0.100010D+01  0.100007D+01  0.000000D+00  0.000000D+00 -0.583544D+02  0.583544D+02  0.000000D+00  0.000000D+00  0.102186D+02  0.102186D+02
 0.101671D+01  0.000000D+00  0.000000D+00 1 0.100002D+01  0.406827D+00 -0.581963D-01  0.000000D+00  0.100010D+01  0.100008D+01  0.000000D+00  0.000000D+00 -0.698763D+02  0.698763D+02  0.000000D+00  0.000000D+00  0.119305D+02  0.119305D+02
 0.101453D+01  0.000000D+00  0.000000D+00 1 0.100001D+01  0.378921D+00 -0.572000D-01  0.000000D+00  0.100009D+01  0.100009D+01  0.000000D+00  0.000000D+00 -0.798233D+02  0.798233D+02  0.000000D+00  0.000000D+00  0.231114D+02  0.231114D+02
 0.101252D+01  0.000000D+00  0.000000D+00 1 0.999996D+00  0.350383D+00 -0.558532D-01  0.000000D+00  0.100009D+01  0.100009D+01  0.000000D+00  0.000000D+00 -0.826861D+02  0.826861D+02  0.000000D+00  0.000000D+00  0.312827D+02  0.312827D+02
 0.101066D+01  0.000000D+00  0.000000D+00 1 0.999985D+00  0.321684D+00 -0.543451D-01  0.000000D+00  0.100009D+01  0.100010D+01  0.000000D+00  0.000000D+00 -0.757593D+02  0.757593D+02  0.000000D+00  0.000000D+00  0.322627D+02  0.322627D+02
 0.100894D+01  0.000000D+00  0.000000D+00 1 0.999972D+00  0.292960D+00 -0.528496D-01  0.000000D+00  0.100008D+01  0.100011D+01  0.000000D+00  0.000000D+00 -0.596741D+02  0.596741D+02  0.000000D+00  0.000000D+00  0.257730D+02  0.257730D+02
 0.100735D+01  0.000000D+00  0.000000D+00 1 0.999960D+00  0.264836D+00 -0.514831D-01  0.000000D+00  0.100008D+01  0.100012D+01  0.000000D+00  0.000000D+00 -0.370583D+02  0.370583D+02  0.000000D+00  0.000000D+00  0.151710D+02  0.151710D+02
 0.100587D+01  0.000000D+00  0.000000D+00 1 0.999949D+00  0.238052D+00 -0.502424D-01  0.000000D+00  0.100007D+01  0.100012D+01  0.000000D+00  0.000000D+00 -0.114301D+02  0.114301D+02  0.000000D+00  0.000000D+00  0.447812D+01  0.447812D+01
 0.100451D+01  0.000000D+00  0.000000D+00 1 0.999939D+00  0.212820D+00 -0.497417D-01  0.000000D+00  0.100007D+01  0.100013D+01  0.000000D+00  0.000000D+00  0.161419D+02  0.161419D+02  0.000000D+00  0.000000D+00  0.120449D+01  0.120449D+01
 0.100325D+01  0.000000D+00  0.000000D+00 1 0.999931D+00  0.188951D+00 -0.508767D-01  0.000000D+00  0.100007D+01  0.100014D+01  0.000000D+00  0.000000D+00  0.443280D+02  0.443280D+02  0.000000D+00  0.000000D+00  0.364075D+02  0.364075D+02
 0.100208D+01  0.000000D+00  0.000000D+00 1 0.999925D+00  0.166329D+00 -0.543322D-01  0.000000D+00  0.100007D+01  0.100014D+01  0.000000D+00  0.000000D+00  0.724400D+02  0.724400D+02  0.000000D+00  0.000000D+00  0.146819D+03  0.146819D+03
 0.100100D+01  0.000000D+00  0.000000D+00 1 0.999958D+00  0.144615D+00 -0.609266D-01  0.000000D+00  0.100012D+01  0.100016D+01  0.000000D+00  0.000000D+00  0.971296D+02  0.971296D+02  0.000000D+00  0.000000D+00  0.358089D+03  0.358089D+03
 0.100000D+01  0.000000D+00  0.000000D+00 1 0.999966D+00  0.126487D+00 -0.377850D-01  0.000000D+00  0.100015D+01  0.100019D+01  0.000000D+00  0.000000D+00  0.457159D+02  0.457159D+02  0.000000D+00  0.000000D+00 -0.281064D+04 -0.281064D+04
 0.300000D+02 -0.500045D-03  0.000000D+00 1 0.999999D+00  0.997524D+00  0.755595D-01  0.000000D+00  0.999999D+00  0.100000D+01  0.000000D+00  0.000000D+00  0.268444D-02  0.268444D-02  0.000000D+00  0.000000D+00  0.830219D-19  0.830219D-19
 0.278343D+02 -0.500045D-03  0.000000D+00 1 0.999999D+00  0.997534D+00  0.764674D-01  0.000000D+00  0.999999D+00  0.100000D+01  0.000000D+00  0.000000D+00  0.679947D-02  0.679947D-02  0.000000D+00  0.000000D+00 -0.334571D-05 -0.334571D-05
 0.258303D+02 -0.500045D-03  0.000000D+00 1 0.999999D+00  0.997572D+00  0.764437D-01  0.000000D+00  0.999999D+00  0.100000D+01  0.000000D+00  0.000000D+00  0.172903D-01  0.172903D-01  0.000000D+00  0.000000D+00  0.789401D-05  0.789401D-05
 0.239758D+02 -0.500045D-03  0.000000D+00 1 0.100000D+01  0.997598D+00  0.743252D-01  0.000000D+00  0.100000D+01  0.100000D+01  0.000000D+00  0.000000D+00  0.285203D-01  0.285203D-01  0.000000D+00  0.000000D+00  0.181039D-04  0.181039D-04
 0.222598D+02 -0.500045D-03  0.000000D+00 1 0.100000D+01  0.997606D+00  0.721348D-01  0.000000D+00  0.100000D+01  0.100000D+01  0.000000D+00  0.000000D+00  0.384483D-01  0.384483D-01  0.000000D+00  0.000000D+00  0.226485D-04  0.226485D-04
 0.206719D+02 -0.500045D-03  0.000000D+00 1 0.100000D+01  0.997609D+00  0.702811D-01  0.000000D+00  0.100000D+01  0.100000D+01  0.000000D+00  0.000000D+00  0.460504D-01  0.460504D-01  0.000000D+00  0.000000D+00  0.250347D-04  0.250347D-04
 0.192025D+02 -0.500045D-03  0.000000D+00 1 0.100000D+01  0.997602D+00  0.686914D-01  0.000000D+00  0.100000D+01  0.100000D+01  0.000000D+00  0.000000D+00  0.539184D-01  0.539184D-01  0.000000D+00  0.000000D+00  0.276751D-04  0.276751D-04
 0.178428D+02 -0.500045D-03  0.000000D+00 1 0.100000D+01  0.997586D+00  0.672646D-01  0.000000D+00  0.100000D+01  0.100000D+01  0.000000D+00  0.000000D+00  0.661581D-01  0.661581D-01  0.000000D+00  0.000000D+00  0.342451D-04  0.342451D-04
 0.165846D+02 -0.500045D-03  0.000000D+00 1 0.100000D+01  0.997577D+00  0.658496D-01  0.000000D+00  0.100000D+01  0.100000D+01  0.000000D+00  0.000000D+00  0.815926D-01  0.815926D-01  0.000000D+00  0.000000D+00  0.483602D-04  0.483602D-04
 0.154203D+02 -0.500045D-03  0.000000D+00 1 0.100000D+01  0.997586D+00  0.643584D-01  0.000000D+00  0.100000D+01  0.100000D+01  0.000000D+00  0.000000D+00  0.985984D-01  0.985984D-01  0.000000D+00  0.000000D+00  0.663436D-04  0.663436D-04
 0.143429D+02 -0.500045D-03  0.000000D+00 1 0.100000D+01  0.997616D+00  0.628124D-01  0.000000D+00  0.100000D+01  0.100000D+01  0.000000D+00  0.000000D+00  0.121504D+00  0.121504D+00  0.000000D+00  0.000000D+00  0.906588D-04  0.906588D-04
 0.133460D+02 -0.500045D-03  0.000000D+00 1 0.100000D+01  0.997665D+00  0.612575D-01  0.000000D+00  0.100000D+01  0.100000D+01  0.000000D+00  0.000000D+00  0.151498D+00  0.151498D+00  0.000000D+00  0.000000D+00  0.120822D-03  0.120822D-03
 0.124235D+02 -0.500045D-03  0.000000D+00 1 0.100000D+01  0.997726D+00  0.597501D-01  0.000000D+00  0.100000D+01  0.100000D+01  0.000000D+00  0.000000D+00  0.189753D+00  0.189753D+00  0.000000D+00  0.000000D+00  0.155884D-03  0.155884D-03
 0.115698D+02 -0.500045D-03  0.000000D+00 1 0.100000D+01  0.997789D+00  0.583345D-01  0.000000D+00  0.100000D+01  0.100000D+01  0.000000D+00  0.000000D+00  0.240302D+00  0.240302D+00  0.000000D+00  0.000000D+00  0.197980D-03  0.197980D-03
 0.107799D+02 -0.500045D-03  0.000000D+00 1 0.100000D+01  0.997849D+00  0.570159D-01  0.000000D+00  0.100000D+01  0.100000D+01  0.000000D+00  0.000000D+00  0.300708D+00  0.300708D+00  0.000000D+00  0.000000D+00  0.251179D-03  0.251179D-03
 0.100489D+02 -0.500045D-03  0.000000D+00 1 0.100000D+01  0.997905D+00  0.557838D-01  0.000000D+00  0.100000D+01  0.100000D+01  0.000000D+00  0.000000D+00  0.365727D+00  0.365727D+00  0.000000D+00  0.000000D+00  0.307925D-03  0.307925D-03
 0.937250D+01 -0.500045D-03  0.000000D+00 1 0.100000D+01  0.997959D+00  0.546447D-01  0.000000D+00  0.100000D+01  0.100000D+01  0.000000D+00  0.000000D+00  0.433296D+00  0.433296D+00  0.000000D+00  0.000000D+00  0.361647D-03  0.361647D-03
 0.874659D+01 -0.500045D-03  0.000000D+00 1 0.100000D+01  0.998009D+00  0.536096D-01  0.000000D+00  0.100000D+01  0.100000D+01  0.000000D+00  0.000000D+00  0.502157D+00  0.502157D+00  0.000000D+00  0.000000D+00  0.407897D-03  0.407897D-03
 0.816740D+01 -0.500045D-03  0.000000D+00 1 0.100000D+01  0.998058D+00  0.526775D-01  0.000000D+00  0.100000D+01  0.100000D+01  0.000000D+00  0.000000D+00  0.571306D+00  0.571306D+00  0.000000D+00  0.000000D+00  0.452079D-03  0.452079D-03
 0.763145D+01 -0.500045D-03  0.000000D+00 1 0.100000D+01  0.998106D+00  0.518355D-01  0.000000D+00  0.100000D+01  0.100000D+01  0.000000D+00  0.000000D+00  0.641043D+00  0.641043D+00  0.000000D+00  0.000000D+00  0.496837D-03  0.496837D-03
 0.713550D+01 -0.500045D-03  0.000000D+00 1 0.100000D+01  0.998157D+00  0.510739D-01  0.000000D+00  0.100000D+01  0.100000D+01  0.000000D+00  0.000000D+00  0.713058D+00  0.713058D+00  0.000000D+00  0.000000D+00  0.539343D-03  0.539343D-03
 0.667657D+01 -0.500045D-03  0.000000D+00 1 0.100000D+01  0.998217D+00  0.503851D-01  0.000000D+00  0.100000D+01  0.100000D+01  0.000000D+00  0.000000D+00  0.790324D+00  0.790324D+00  0.000000D+00  0.000000D+00  0.585581D-03  0.585581D-03
 0.625191D+01 -0.500045D-03  0.000000D+00 1 0.100000D+01  0.998286D+00  0.497539D-01  0.000000D+00  0.100000D+01  0.100000D+01  0.000000D+00  0.000000D+00  0.877379D+00  0.877379D+00  0.000000D+00  0.000000D+00  0.651596D-03  0.651596D-03