 variables = "X","Y","Z","Cp","Cfx","Cfy","Cfz","Cf","T","u","v","w","yplus"
 zone i=         151
   1.00000000000000       1.665324653670056E-017  0.000000000000000E+000
  0.208572047436746       7.988710597173225E-003 -2.188336759884170E-004
  0.000000000000000E+000  8.207544273161642E-003   1.00019639049290     
  0.150932784606987      -3.233748155661331E-002  0.000000000000000E+000
   3.42401988008517     
  0.999001425599671       5.447267690042997E-005  0.000000000000000E+000
  0.174069056772396       7.380846294596973E-003 -4.020399602582263E-004
  0.000000000000000E+000  7.782886254855199E-003   1.00019950416117     
  0.138316452307076      -4.972989675128107E-003  0.000000000000000E+000
   3.21923755579646     
  0.997949997818270       1.116616879644300E-004  0.000000000000000E+000
  0.183370734068603       6.864258839525556E-003 -3.727330848166327E-004
  0.000000000000000E+000  7.236991924342189E-003   1.00019902777013     
  0.128621001657698      -4.892250736669509E-003  0.000000000000000E+000
   3.10450665734546     
  0.996843037128316       1.716701774105140E-004  0.000000000000000E+000
  0.191457100386970       6.421282364190233E-003 -3.476913836091697E-004
  0.000000000000000E+000  6.768973747799402E-003   1.00019887813876     
  0.120306983088752      -4.826831516661422E-003  0.000000000000000E+000
   3.00263881112014     
  0.995677746198344       2.346938777538863E-004  0.000000000000000E+000
  0.198880712922573       6.046830630990342E-003 -3.264481151179558E-004
  0.000000000000000E+000  6.373278746108298E-003   1.00019882549694     
  0.113279106021183      -4.772309700300293E-003  0.000000000000000E+000
   2.91376029233256     
  0.994451193364049       3.007928008083059E-004  0.000000000000000E+000
  0.204112130022850       5.736342714447892E-003 -3.085837910419902E-004
  0.000000000000000E+000  6.044926505489882E-003   1.00019857953559     
  0.107451363657852      -4.734961783974284E-003  0.000000000000000E+000
   2.83796130796534     
  0.993160320569400       3.701124539357903E-004  0.000000000000000E+000
  0.207384074052243       5.484512948645510E-003 -2.940479806396620E-004
  0.000000000000000E+000  5.778560929285172E-003   1.00019810383659     
  0.102724528472035      -4.708366658517040E-003  0.000000000000000E+000
   2.77496814926417     
  0.991801936040528       4.428260084685768E-004  0.000000000000000E+000
  0.209968971468925       5.283166093300792E-003 -2.821865015769705E-004
  0.000000000000000E+000  5.565352594877762E-003   1.00019762070084     
  9.894556146900568E-002 -4.682804404206910E-003  0.000000000000000E+000
   2.72356360101079     
  0.990372703239448       5.189985854962523E-004  0.000000000000000E+000
  0.211765084526405       5.124960701793391E-003 -2.726217432879213E-004
  0.000000000000000E+000  5.397582445081313E-003   1.00019727984295     
  9.597644822607601E-002 -4.660968575858503E-003  0.000000000000000E+000
   2.68248896380132     
  0.988869149734546       5.988289370959963E-004  0.000000000000000E+000
  0.212800307001089       5.003403249471507E-003 -2.651139791339113E-004
  0.000000000000000E+000  5.268517228605418E-003   1.00019715410473     
  9.369518491705228E-002 -4.644454357970073E-003  0.000000000000000E+000
   2.65050157108851     
  0.987287653567351       6.824581442352054E-004  0.000000000000000E+000
  0.212135175058847       4.912205257650141E-003 -2.590276437764153E-004
  0.000000000000000E+000  5.171232901426556E-003   1.00019692287783     
  9.198415611875732E-002 -4.624570024189382E-003  0.000000000000000E+000
   2.62625613343606     
  0.985624436699843       7.699165229630898E-004  0.000000000000000E+000
  0.213092875621442       4.843080501087363E-003 -2.543337483648792E-004
  0.000000000000000E+000  5.097414249452242E-003   1.00019673776570     
  9.068813438511071E-002 -4.594286742841554E-003  0.000000000000000E+000
   2.60773378846689     
  0.983875589210279       8.616377525778661E-004  0.000000000000000E+000
  0.215310019215394       4.789223775519950E-003 -2.500986126194647E-004
  0.000000000000000E+000  5.039322388139414E-003   1.00019666803117     
  8.967905312010986E-002 -4.559208200101001E-003  0.000000000000000E+000
   2.59322277362387     
  0.982037001885699       9.572376115019621E-004  0.000000000000000E+000
  0.216283478951254       4.750493228735516E-003 -2.469795843559146E-004
  0.000000000000000E+000  4.997472813091431E-003   1.00019673800949     
  8.895266830726889E-002 -4.548651768165385E-003  0.000000000000000E+000
   2.58273830688577     
  0.980104478202655       1.057699935824212E-003  0.000000000000000E+000
  0.215009022733739       4.728409446546652E-003 -2.442572206305288E-004
  0.000000000000000E+000  4.972666667177181E-003   1.00019664533827     
  8.853877712318280E-002 -4.540622069757637E-003  0.000000000000000E+000
   2.57675835934923     
  0.978073553669464       1.161948348956863E-003  0.000000000000000E+000
  0.213808505427778       4.719545554426712E-003 -2.422548389137985E-004
  0.000000000000000E+000  4.961800393340511E-003   1.00019661122495     
  8.837332493406037E-002 -4.527060468248521E-003  0.000000000000000E+000
   2.57437048544700     
  0.975939733923639       1.271478426898274E-003  0.000000000000000E+000
  0.213042786994947       4.717474065608526E-003 -2.407215815548531E-004
  0.000000000000000E+000  4.958195647163379E-003   1.00019667265545     
  8.833579031332275E-002 -4.507183706048781E-003  0.000000000000000E+000
   2.57383449396396     
  0.973698227034776       1.385180156087390E-003  0.000000000000000E+000
  0.211914489319952       4.719586523977702E-003 -2.390697391529755E-004
  0.000000000000000E+000  4.958656263130677E-003   1.00019662581298     
  8.837686310466786E-002 -4.485529532939288E-003  0.000000000000000E+000
   2.57444324065009     
  0.971344194597081       1.504258504303337E-003  0.000000000000000E+000
  0.211582305254296       4.726828792588263E-003 -2.378749759241328E-004
  0.000000000000000E+000  4.964703768512396E-003   1.00019665036433     
  8.851378056085665E-002 -4.473908494218120E-003  0.000000000000000E+000
   2.57644943964910     
  0.968872537262536       1.628001624485897E-003  0.000000000000000E+000
  0.210953620786995       4.740766737036019E-003 -2.366159657605037E-004
  0.000000000000000E+000  4.977382702796522E-003   1.00019652910526     
  8.877632901413884E-002 -4.463656157524965E-003  0.000000000000000E+000
   2.58028211725633     
  0.966278062333970       1.757096938973359E-003  0.000000000000000E+000
  0.211095633059131       4.761835791075720E-003 -2.358887352767184E-004
  0.000000000000000E+000  4.997724526352438E-003   1.00019650663428     
  8.917242986056745E-002 -4.460304697741996E-003  0.000000000000000E+000
   2.58604492793449     
  0.963555373647426       1.891373763395130E-003  0.000000000000000E+000
  0.210897263263860       4.789464455470268E-003 -2.350782523912924E-004
  0.000000000000000E+000  5.024542707861560E-003   1.00019651103321     
  8.969181964495318E-002 -4.454220944605873E-003  0.000000000000000E+000
   2.59357691570348     
  0.960698927782761       2.030904889090778E-003  0.000000000000000E+000
  0.211178642813593       4.820612370166671E-003 -2.345499507624827E-004
  0.000000000000000E+000  5.055162320929153E-003   1.00019664778795     
  9.027751369180928E-002 -4.443158104055404E-003  0.000000000000000E+000
   2.60203576558374     
  0.957703044267799       2.176098169407578E-003  0.000000000000000E+000
  0.211162292731842       4.849716751112879E-003 -2.335547831527811E-004
  0.000000000000000E+000  5.083271534265660E-003   1.00019674109279     
  9.082568082874042E-002 -4.415324477442157E-003  0.000000000000000E+000
   2.60992282682095     
  0.954561846157195       2.326415247496387E-003  0.000000000000000E+000
  0.211466891230657       4.874096130065243E-003 -2.323424477188623E-004
  0.000000000000000E+000  5.106438577784105E-003   1.00019687722719     
  9.128530144846467E-002 -4.383777646567133E-003  0.000000000000000E+000
   2.61651810312397     
  0.951269384357213       2.482757904136671E-003  0.000000000000000E+000
  0.211721198551459       4.893939932862898E-003 -2.306450604494934E-004
  0.000000000000000E+000  5.124584993312391E-003   1.00019699219764     
  9.166015361234969E-002 -4.344802589959061E-003  0.000000000000000E+000
   2.62188663302152     
  0.947819482538107       2.644120805717701E-003  0.000000000000000E+000
  0.212088157661810       4.909785833707340E-003 -2.286345483426972E-004
  0.000000000000000E+000  5.138420382050037E-003   1.00019711574860     
  9.196014673100494E-002 -4.301133558821840E-003  0.000000000000000E+000
   2.62617649685343     
  0.944205942257812       2.811651156899837E-003  0.000000000000000E+000
  0.212685304711840       4.921926143132868E-003 -2.263269628824382E-004
  0.000000000000000E+000  5.148253106015307E-003   1.00019726764340     
  9.219081592039340E-002 -4.252645521536966E-003  0.000000000000000E+000
   2.62947231209049     
  0.940422342196095       2.984205242399509E-003  0.000000000000000E+000
  0.213040168067891       4.930888705526081E-003 -2.235740494419137E-004
  0.000000000000000E+000  5.154462754967995E-003   1.00019737295160     
  9.236213055480047E-002 -4.197061342063371E-003  0.000000000000000E+000
   2.63191931382215     
  0.936462258150449       3.162718150678633E-003  0.000000000000000E+000
  0.214010566688330       4.936662420881930E-003 -2.207363518452179E-004
  0.000000000000000E+000  5.157398772727148E-003   1.00019757697592     
  9.247365638762620E-002 -4.139760595091305E-003  0.000000000000000E+000
   2.63351365535239     
  0.932319101600151       3.346467535361265E-003  0.000000000000000E+000
  0.214519033939268       4.939751468099646E-003 -2.172708524155295E-004
  0.000000000000000E+000  5.157022320515175E-003   1.00019768906380     
  9.253519687718600E-002 -4.072814768038013E-003  0.000000000000000E+000
   2.63439702995087     
  0.927986251584928       3.535462227755561E-003  0.000000000000000E+000
  0.215798194321678       4.940858993193567E-003 -2.139969764094505E-004
  0.000000000000000E+000  5.154855969603018E-003   1.00019792943691     
  9.255935609635299E-002 -4.009340955903007E-003  0.000000000000000E+000
   2.63474874547438     
  0.923457056336885       3.730240913818279E-003  0.000000000000000E+000
  0.215978120407726       4.941308020523267E-003 -2.099475375699562E-004
  0.000000000000000E+000  5.151255558093223E-003   1.00019796947134     
  9.257164385162014E-002 -3.934372074068754E-003  0.000000000000000E+000
   2.63493329935131     
  0.918724734063985       3.928866629792209E-003  0.000000000000000E+000
  0.217616778823640       4.941534984542838E-003 -2.064119309055460E-004
  0.000000000000000E+000  5.147946915448384E-003   1.00019826485215     
  9.257937022669283E-002 -3.866934262460768E-003  0.000000000000000E+000
   2.63505230091995     
  0.913782702004972       4.134308086652536E-003  0.000000000000000E+000
  0.218003050230436       4.941534132876763E-003 -2.018530637263831E-004
  0.000000000000000E+000  5.143387196603146E-003   1.00019834015233     
  9.258352535326239E-002 -3.782551424413233E-003  0.000000000000000E+000
   2.63512188707729     
  0.908624062312831       4.341309162270438E-003  0.000000000000000E+000
  0.218420138749707       4.942443986743627E-003 -1.972099505288899E-004
  0.000000000000000E+000  5.139653937272518E-003   1.00019840592836     
  9.260474104746413E-002 -3.696525824427888E-003  0.000000000000000E+000
   2.63543396392107     
  0.903242385263693       4.554834075679027E-003  0.000000000000000E+000
  0.220599251017347       4.942564125174818E-003 -1.930190140437479E-004
  0.000000000000000E+000  5.135583139218565E-003   1.00019876961818     
  9.261087130189283E-002 -3.616008888744117E-003  0.000000000000000E+000
   2.63553121460383     
  0.897630946103148       4.770477692087010E-003  0.000000000000000E+000
  0.221176904111644       4.942183699310291E-003 -1.875775990133189E-004
  0.000000000000000E+000  5.129761298323610E-003   1.00019882079036     
  9.260832814350534E-002 -3.514851974241135E-003  0.000000000000000E+000
   2.63550575212161     
  0.891783373400719       4.989646083122509E-003  0.000000000000000E+000
  0.223962107962961       4.939740732448331E-003 -1.832717583592430E-004
  0.000000000000000E+000  5.123012490807574E-003   1.00019926435087     
  9.256633093207060E-002 -3.431115233737251E-003  0.000000000000000E+000
   2.63491814453779     
  0.885693421287334       5.213290243712273E-003  0.000000000000000E+000
  0.224165190373469       4.935541994426876E-003 -1.771538269454293E-004
  0.000000000000000E+000  5.112695821372305E-003   1.00019926011756     
  9.249239955204122E-002 -3.317788756280917E-003  0.000000000000000E+000
   2.63387678954095     
  0.879354799790459       5.435549238576376E-003  0.000000000000000E+000
  0.224770013593115       4.934165488707711E-003 -1.710914251886379E-004
  0.000000000000000E+000  5.105256913896349E-003   1.00019927717627     
  9.247122228979388E-002 -3.206291151323526E-003  0.000000000000000E+000
   2.63358693890722     
  0.872761850024891       5.661595916410732E-003  0.000000000000000E+000
  0.228244557493781       4.929547243694540E-003 -1.659536629987679E-004
  0.000000000000000E+000  5.095500906693307E-003   1.00019980247417     
  9.238874840055658E-002 -3.104626990060712E-003  0.000000000000000E+000
   2.63242187648320     
  0.865908887614107       5.888050303986711E-003  0.000000000000000E+000
  0.228464197547964       4.919640028121345E-003 -1.587234187646400E-004
  0.000000000000000E+000  5.078363446885985E-003   1.00019975759854     
  9.220804425128643E-002 -2.968385575045529E-003  0.000000000000000E+000
   2.62985611174844     
  0.858790596690845       6.112150921137999E-003  0.000000000000000E+000
  0.229387959518363       4.911026513208831E-003 -1.521739729077946E-004
  0.000000000000000E+000  5.063200486116626E-003   1.00019979718741     
  9.205095667147792E-002 -2.847423256306456E-003  0.000000000000000E+000
   2.62762656212652     
  0.851402232938537       6.337426796155764E-003  0.000000000000000E+000
  0.232549412619846       4.901023395845065E-003 -1.458303227376159E-004
  0.000000000000000E+000  5.046853718582681E-003   1.00020024262607     
  9.186761014145856E-002 -2.726421689222529E-003  0.000000000000000E+000
   2.62501897161624     
  0.843739242234269       6.559807874772471E-003  0.000000000000000E+000
  0.233223151192533       4.889641643742356E-003 -1.376727564892109E-004
  0.000000000000000E+000  5.027314400231566E-003   1.00020026259269     
  9.165905862175835E-002 -2.575156399203419E-003  0.000000000000000E+000
   2.62204769258705     
  0.835797614343686       6.776554441764220E-003  0.000000000000000E+000
  0.234317389885746       4.881991764958109E-003 -1.302532794019628E-004
  0.000000000000000E+000  5.012245044360072E-003   1.00020028149167     
  9.151990194837883E-002 -2.438121990345908E-003  0.000000000000000E+000
   2.62006691970509     
  0.827574033874230       6.990933322577417E-003  0.000000000000000E+000
  0.237909020905363       4.872032946576371E-003 -1.235974634110624E-004
  0.000000000000000E+000  4.995630409987434E-003   1.00020077536552     
  9.133695831527228E-002 -2.310116561771549E-003  0.000000000000000E+000
   2.61745602315529     
  0.819065622350018       7.200829533666883E-003  0.000000000000000E+000
  0.238860568042583       4.858741976546491E-003 -1.145586625071504E-004
  0.000000000000000E+000  4.973300639053642E-003   1.00020084297576     
  9.109217094609198E-002 -2.141480558992398E-003  0.000000000000000E+000
   2.61395334834832     
  0.810270040767068       7.398615321999188E-003  0.000000000000000E+000
  0.239306287081718       4.849725455465595E-003 -1.055149169021468E-004
  0.000000000000000E+000  4.955240372367742E-003   1.00020071906574     
  9.092720182774282E-002 -1.974909493374513E-003  0.000000000000000E+000
   2.61159260691322     
  0.801185958372473       7.589628713596443E-003  0.000000000000000E+000
  0.242151520759990       4.840991239186554E-003 -9.809130967737425E-005
  0.000000000000000E+000  4.939082548863928E-003   1.00020100747919     
  9.076667471240607E-002 -1.833664009028999E-003  0.000000000000000E+000
   2.60929263251509     
  0.791812627973472       7.772394067772765E-003  0.000000000000000E+000
  0.244801074179350       4.825670928150970E-003 -8.950346252654198E-005
  0.000000000000000E+000  4.915174390677512E-003   1.00020131635646     
  9.048267582771655E-002 -1.669687107490825E-003  0.000000000000000E+000
   2.60521122616632     
  0.782150065254686       7.942422822669317E-003  0.000000000000000E+000
  0.245507203889929       4.807926827262459E-003 -7.933456003923601E-005
  0.000000000000000E+000  4.887261387301695E-003   1.00020127571962     
  9.015317843916697E-002 -1.480068583648628E-003  0.000000000000000E+000
   2.60046465621026     
  0.772199185767239       8.095718475719276E-003  0.000000000000000E+000
  0.246118488267030       4.793968243760010E-003 -6.965484466269357E-005
  0.000000000000000E+000  4.863623088422703E-003   1.00020114213811     
  8.989407770504426E-002 -1.300731350778946E-003  0.000000000000000E+000
   2.59672544956755     
  0.761961923922881       8.235501917519613E-003  0.000000000000000E+000
  0.248282205875057       4.781053221433180E-003 -6.093717317297245E-005
  0.000000000000000E+000  4.841990394606152E-003   1.00020126681250     
  8.965389542396972E-002 -1.136516877235218E-003  0.000000000000000E+000
   2.59325300300880     
  0.751441078648974       8.360036325710233E-003  0.000000000000000E+000
  0.251134788818263       4.763312524434149E-003 -5.189676245230850E-005
  0.000000000000000E+000  4.815209286886458E-003   1.00020160341630     
  8.932281233007425E-002 -9.645974432576231E-004  0.000000000000000E+000
   2.58845643072070     
  0.740640446574066       8.467539394565621E-003  0.000000000000000E+000
  0.252413594340624       4.742782213726275E-003 -4.109327466532937E-005
  0.000000000000000E+000  4.783875488391604E-003   1.00020169341538     
  8.893899832683386E-002 -7.624020052806753E-004  0.000000000000000E+000
   2.58287969546209     
  0.729564815658738       8.549226778783900E-003  0.000000000000000E+000
  0.252575432007689       4.725502809616332E-003 -3.004526286148433E-005
  0.000000000000000E+000  4.755548072477816E-003   1.00020154496852     
  8.861554357877736E-002 -5.573627561943804E-004  0.000000000000000E+000
   2.57816601317537     
  0.718220157151689       8.609815858319162E-003  0.000000000000000E+000
  0.254072884695461       4.710385496546175E-003 -2.034255550765415E-005
  0.000000000000000E+000  4.730728052053829E-003   1.00020163773956     
  8.833176180877433E-002 -3.753484749093808E-004  0.000000000000000E+000
   2.57401772169063     
  0.706613454876314       8.648074977020741E-003  0.000000000000000E+000
  0.255670973074530       4.694070882773623E-003 -1.056738946294906E-005
  0.000000000000000E+000  4.704638272236572E-003   1.00020175379447     
  8.802440447720883E-002 -1.916131909183619E-004  0.000000000000000E+000
   2.56950765267723     
  0.694752788406665       8.662372544331720E-003  0.000000000000000E+000
  0.257364883655100       4.675860127308585E-003 -6.546566211231978E-007
  0.000000000000000E+000  4.676514783929708E-003   1.00020185738658     
  8.768024937067134E-002 -4.933557690702004E-006  0.000000000000000E+000
   2.56443910710512     
  0.682647343539202       8.651157664054129E-003  0.000000000000000E+000
  0.259075537810077       4.656386646416774E-003  9.860017722716532E-006
  0.000000000000000E+000  4.666246664139491E-003   1.00020202057167     
  8.731131700652361E-002  1.918968615658067E-004  0.000000000000000E+000
   2.55898743989214     
  0.670307422204054       8.610315629881678E-003  0.000000000000000E+000
  0.259635741807188       4.639465387248132E-003  2.106100734103547E-005
  0.000000000000000E+000  4.660526394589167E-003   1.00020201986226     
  8.698920448857325E-002  4.000944511368770E-004  0.000000000000000E+000
   2.55420289909276     
  0.657744432187388       8.537819516044324E-003  0.000000000000000E+000
  0.259875918485022       4.626574731285986E-003  3.174067707025287E-005
  0.000000000000000E+000  4.658315408356239E-003   1.00020189265028     
  8.674183152493289E-002  5.993325040630547E-004  0.000000000000000E+000
   2.55050254685131     
  0.644970813927204       8.436245338104848E-003  0.000000000000000E+000
  0.260888645921113       4.614516291956854E-003  4.173679076600641E-005
  0.000000000000000E+000  4.656253082722860E-003   1.00020187918098     
  8.650925524310096E-002  7.868777981214505E-004  0.000000000000000E+000
   2.54700861748682     
  0.632000051176599       8.304733450058579E-003  0.000000000000000E+000
  0.261797161732375       4.601373002179388E-003  5.167418870336873E-005
  0.000000000000000E+000  4.653047190882757E-003   1.00020186736695     
  8.625537346225332E-002  9.734292664155900E-004  0.000000000000000E+000
   2.54318748978930     
  0.618846621299056       8.142643113908310E-003  0.000000000000000E+000
  0.262594535874769       4.587615987198152E-003  6.150804741710526E-005
  0.000000000000000E+000  4.649124034615257E-003   1.00020183279550     
  8.598900595664023E-002  1.157695981093416E-003  0.000000000000000E+000
   2.53916740277514     
  0.605525942452643       7.949576021555563E-003  0.000000000000000E+000
  0.263467654189526       4.574145348802477E-003  7.120202347895180E-005
  0.000000000000000E+000  4.645347372281429E-003   1.00020179175361     
  8.572701316718112E-002  1.338970135507258E-003  0.000000000000000E+000
   2.53519632168230     
  0.592054310759683       7.725396929789890E-003  0.000000000000000E+000
  0.264660000103504       4.561880101570848E-003  8.083726216205428E-005
  0.000000000000000E+000  4.642717363732903E-003   1.00020182853364     
  8.548653983654528E-002  1.518634733409705E-003  0.000000000000000E+000
   2.53152727955213     
  0.578448841139469       7.469587338919363E-003  0.000000000000000E+000
  0.264688245168372       4.552842064071793E-003  9.087173811925786E-005
  0.000000000000000E+000  4.643713802191050E-003   1.00020165596550     
  8.530516109786601E-002  1.704933426873142E-003  0.000000000000000E+000
   2.52871515294311     
  0.564727426131715       7.179798545920949E-003  0.000000000000000E+000
  0.264302362211311       4.547755304829496E-003  1.005211122900006E-004
  0.000000000000000E+000  4.648276417119497E-003   1.00020128999896     
  8.519652850573475E-002  1.884476274547739E-003  0.000000000000000E+000
   2.52696357628580     
  0.550908452145140       6.860707846468249E-003  0.000000000000000E+000
  0.264830207103159       4.544471137999523E-003  1.092400758948973E-004
  0.000000000000000E+000  4.653711213894420E-003   1.00020103394417     
  8.512005353395012E-002  2.047252083254752E-003  0.000000000000000E+000
   2.52566440459482     
  0.537010910895377       6.513416561857800E-003  0.000000000000000E+000
  0.265323131809510       4.542091574926338E-003  1.176133978291275E-004
  0.000000000000000E+000  4.659704972755465E-003   1.00020075226790     
  8.505862083450544E-002  2.203255165794855E-003  0.000000000000000E+000
   2.52456157111566     
  0.523054228165777       6.139328491792367E-003  0.000000000000000E+000
  0.265855131054423       4.540984841110090E-003  1.256028904214018E-004
  0.000000000000000E+000  4.666587731531492E-003   1.00020041017484     
  8.501972923820098E-002  2.351962427571064E-003  0.000000000000000E+000
   2.52377492227081     
  0.509058155752480       5.740143054580419E-003  0.000000000000000E+000
  0.266447894244948       4.541050249303917E-003  1.331587874170174E-004
  0.000000000000000E+000  4.674209036720935E-003   1.00020002233178     
  8.500176750880659E-002  2.492532087808134E-003  0.000000000000000E+000
   2.52328399670689     
  0.495042659692362       5.317842972884984E-003  0.000000000000000E+000
  0.267156726162739       4.542085504163724E-003  1.402282614198967E-004
  0.000000000000000E+000  4.682313765583621E-003   1.00019958154705     
  8.500099371227116E-002  2.623970763380884E-003  0.000000000000000E+000
   2.52303311469647     
  0.481027806142041       4.874676585191666E-003  0.000000000000000E+000
  0.268105173903677       4.544213450997604E-003  1.467685692681832E-004
  0.000000000000000E+000  4.690982020265787E-003   1.00019909122672     
  8.501976707280823E-002  2.745285938652801E-003  0.000000000000000E+000
   2.52305710750582     
  0.467033646316841       4.413134998349662E-003  0.000000000000000E+000
  0.269502485360590       4.547655442637722E-003  1.527705408536063E-004
  0.000000000000000E+000  4.700425983491329E-003   1.00019855767218     
  8.506174148063998E-002  2.856367241233058E-003  0.000000000000000E+000
   2.52340236430276     
  0.453080108148714       3.935745123473622E-003  0.000000000000000E+000
  0.270901954160081       4.552860805407575E-003  1.584165033302306E-004
  0.000000000000000E+000  4.711277308737806E-003   1.00019793922597     
  8.513417118901184E-002  2.960392711920360E-003  0.000000000000000E+000
   2.52415978359815     
  0.439186917314490       3.444124449314979E-003  0.000000000000000E+000
  0.273322646247152       4.558936458872564E-003  1.632435537816141E-004
  0.000000000000000E+000  4.722180012654178E-003   1.00019738578766     
  8.522085119624757E-002  3.050173925553334E-003  0.000000000000000E+000
   2.52509369045848     
  0.425373323286012       2.943537917647252E-003  0.000000000000000E+000
  0.278405013978727       4.561327894682845E-003  1.668190102452462E-004
  0.000000000000000E+000  4.728146904928091E-003   1.00019731179897     
  8.523785134862630E-002  3.118325083793576E-003  0.000000000000000E+000
   2.52497678516602     
  0.411658191042757       2.437221773305309E-003  0.000000000000000E+000
  0.286256800152614       4.550988199465797E-003  1.711610270818351E-004
  0.000000000000000E+000  4.722149226547632E-003   1.00019775653921     
  8.501327156856615E-002  3.204350808960062E-003  0.000000000000000E+000
   2.52124416879720     
  0.398060300010423       1.916233981970908E-003  0.000000000000000E+000
  0.294146699348403       4.513134023780012E-003  1.808591836206206E-004
  0.000000000000000E+000  4.693993207400633E-003   1.00019816513169     
  8.426230143566299E-002  3.395314640787905E-003  0.000000000000000E+000
   2.50957088029599     
  0.384598635456386       1.352902573853140E-003  0.000000000000000E+000
  0.297618953832398       4.440264310699938E-003  1.971068739461993E-004
  0.000000000000000E+000  4.637371184646137E-003   1.00019791863593     
  8.283990730447136E-002  3.707884548137707E-003  0.000000000000000E+000
   2.48761849233548     
  0.371291267288200       7.281164213263902E-004  0.000000000000000E+000
  0.296966528108669       4.337489372128404E-003  2.150923113794358E-004
  0.000000000000000E+000  4.552581683507839E-003   1.00019689696390     
  8.084797277286854E-002  4.048846108893963E-003  0.000000000000000E+000
   2.45671636507935     
  0.358154780898738       4.178473641569574E-005  0.000000000000000E+000
  0.297160633134126       4.219910341594465E-003  2.309961756002686E-004
  0.000000000000000E+000  4.450906517194733E-003   1.00019609213814     
  7.857703922703131E-002  4.342729717197700E-003  0.000000000000000E+000
   2.42108198727361     
  0.345204555188213      -6.996594131643285E-004  0.000000000000000E+000
  0.295923682950161       4.112328294362824E-003  2.464535256285978E-004
  0.000000000000000E+000  4.358781819991422E-003   1.00019523566050     
  7.648865046227610E-002  4.617541039865350E-003  0.000000000000000E+000
   2.38771148507378     
  0.332455505085775      -1.498146808410845E-003  0.000000000000000E+000
  0.291360212482232       4.030796161560078E-003  2.614728414381720E-004
  0.000000000000000E+000  4.292269002998250E-003   1.00019406920088     
  7.488177937114260E-002  4.882806714955897E-003  0.000000000000000E+000
   2.36142340161822     
  0.319920537181743      -2.339667901782980E-003  0.000000000000000E+000
  0.287107714772674       3.971741530838542E-003  2.744677730683711E-004
  0.000000000000000E+000  4.246209303906913E-003   1.00019335814733     
  7.369294134538491E-002  5.112693321143241E-003  0.000000000000000E+000
   2.34146741057185     
  0.307611656831778      -3.214917519367286E-003  0.000000000000000E+000
  0.283091820153913       3.926564590001269E-003  2.862921826998411E-004
  0.000000000000000E+000  4.212856772701110E-003   1.00019293499951     
  7.276025712550092E-002  5.321560561367086E-003  0.000000000000000E+000
   2.32539902374734     
  0.295539909591286      -4.117285986877651E-003  0.000000000000000E+000
  0.279068019244960       3.891514906821316E-003  2.972625338401511E-004
  0.000000000000000E+000  4.188777440661467E-003   1.00019284315861     
  7.201177740783821E-002  5.514821678951386E-003  0.000000000000000E+000
   2.31211057163391     
  0.283715218424319      -5.040365564571752E-003  0.000000000000000E+000
  0.275882426080216       3.863607145304375E-003  3.072911912458664E-004
  0.000000000000000E+000  4.170898336550242E-003   1.00019316801874     
  7.139132865936799E-002  5.690215693069088E-003  0.000000000000000E+000
   2.30072789026865     
  0.272146384621058      -5.978022424434283E-003  0.000000000000000E+000
  0.271624876766055       3.843058433742929E-003  3.172336513502841E-004
  0.000000000000000E+000  4.160292085093213E-003   1.00019371697221     
  7.090091121378257E-002  5.861194956089726E-003  0.000000000000000E+000
   2.29128974486149     
  0.260841459952367      -6.928699530984975E-003  0.000000000000000E+000
  0.265756019689661       3.832560912618911E-003  3.268610919852138E-004
  0.000000000000000E+000  4.159422004604126E-003   1.00019436799898     
  7.059024849170169E-002  6.025613355703093E-003  0.000000000000000E+000
   2.28461986163439     
  0.249806769810523      -7.883567295849768E-003  0.000000000000000E+000