variables = "X","Y","Z","HL","rh","u","v","w","p","T","vor_x","vor_y","vor_z","Vor","Q_x","Q_y","Q_z","Q_cri"
 zone i=         101  j=          81
 0.300000D+02  0.000000D+00  0.000000D+00 1 0.100000D+01  0.994715D+00  0.110686D+00  0.000000D+00  0.100000D+01  0.100000D+01  0.000000D+00  0.000000D+00  0.550309D-01  0.550309D-01  0.000000D+00  0.000000D+00  0.504062D-05  0.504062D-05
 0.278343D+02  0.000000D+00  0.000000D+00 1 0.999999D+00  0.995143D+00  0.111492D+00  0.000000D+00  0.999999D+00  0.100000D+01  0.000000D+00  0.000000D+00  0.161200D+00  0.161200D+00  0.000000D+00  0.000000D+00 -0.627632D-04 -0.627632D-04
 0.258303D+02  0.000000D+00  0.000000D+00 1 0.999999D+00  0.996034D+00  0.111247D+00  0.000000D+00  0.999999D+00  0.100000D+01  0.000000D+00  0.000000D+00  0.355606D+00  0.355606D+00  0.000000D+00  0.000000D+00  0.193615D-03  0.193615D-03
 0.239758D+02  0.000000D+00  0.000000D+00 1 0.100000D+01  0.997189D+00  0.108957D+00  0.000000D+00  0.100000D+01  0.100000D+01  0.000000D+00  0.000000D+00  0.607512D+00  0.607512D+00  0.000000D+00  0.000000D+00  0.420973D-03  0.420973D-03
 0.222598D+02  0.000000D+00  0.000000D+00 1 0.100000D+01  0.998439D+00  0.106659D+00  0.000000D+00  0.100000D+01  0.100000D+01  0.000000D+00  0.000000D+00  0.889135D+00  0.889135D+00  0.000000D+00  0.000000D+00  0.570595D-03  0.570595D-03
 0.206719D+02  0.000000D+00  0.000000D+00 1 0.100000D+01  0.999693D+00  0.104688D+00  0.000000D+00  0.100000D+01  0.100000D+01  0.000000D+00  0.000000D+00  0.118118D+01  0.118118D+01  0.000000D+00  0.000000D+00  0.704112D-03  0.704112D-03
 0.192025D+02  0.000000D+00  0.000000D+00 1 0.100000D+01  0.100090D+01  0.102966D+00  0.000000D+00  0.100000D+01  0.100000D+01  0.000000D+00  0.000000D+00  0.147199D+01  0.147199D+01  0.000000D+00  0.000000D+00  0.844686D-03  0.844686D-03
 0.178428D+02  0.000000D+00  0.000000D+00 1 0.100000D+01  0.100207D+01  0.101379D+00  0.000000D+00  0.100000D+01  0.100000D+01  0.000000D+00  0.000000D+00  0.175941D+01  0.175941D+01  0.000000D+00  0.000000D+00  0.104325D-02  0.104325D-02
 0.165846D+02  0.000000D+00  0.000000D+00 1 0.100000D+01  0.100324D+01  0.998018D-01  0.000000D+00  0.100000D+01  0.100000D+01  0.000000D+00  0.000000D+00  0.204579D+01  0.204579D+01  0.000000D+00  0.000000D+00  0.135575D-02  0.135575D-02
 0.154203D+02  0.000000D+00  0.000000D+00 1 0.100000D+01  0.100442D+01  0.981877D-01  0.000000D+00  0.100000D+01  0.100000D+01  0.000000D+00  0.000000D+00  0.233365D+01  0.233365D+01  0.000000D+00  0.000000D+00  0.169238D-02  0.169238D-02
 0.143429D+02  0.000000D+00  0.000000D+00 1 0.100000D+01  0.100568D+01  0.965594D-01  0.000000D+00  0.100000D+01  0.100000D+01  0.000000D+00  0.000000D+00  0.262700D+01  0.262700D+01  0.000000D+00  0.000000D+00  0.206923D-02  0.206923D-02
 0.133460D+02  0.000000D+00  0.000000D+00 1 0.100000D+01  0.100705D+01  0.949417D-01  0.000000D+00  0.100000D+01  0.100000D+01  0.000000D+00  0.000000D+00  0.293259D+01  0.293259D+01  0.000000D+00  0.000000D+00  0.245131D-02  0.245131D-02
 0.124235D+02  0.000000D+00  0.000000D+00 1 0.100000D+01  0.100858D+01  0.933657D-01  0.000000D+00  0.100000D+01  0.100000D+01  0.000000D+00  0.000000D+00  0.326037D+01  0.326037D+01  0.000000D+00  0.000000D+00  0.284600D-02  0.284600D-02
 0.115698D+02  0.000000D+00  0.000000D+00 1 0.100000D+01  0.101029D+01  0.918441D-01  0.000000D+00  0.100000D+01  0.100000D+01  0.000000D+00  0.000000D+00  0.362223D+01  0.362223D+01  0.000000D+00  0.000000D+00  0.329641D-02  0.329641D-02
 0.107799D+02  0.000000D+00  0.000000D+00 1 0.100000D+01  0.101220D+01  0.903727D-01  0.000000D+00  0.100000D+01  0.100000D+01  0.000000D+00  0.000000D+00  0.402970D+01  0.402970D+01  0.000000D+00  0.000000D+00  0.384224D-02  0.384224D-02
 0.100489D+02  0.000000D+00  0.000000D+00 1 0.100000D+01  0.101431D+01  0.889490D-01  0.000000D+00  0.100000D+01  0.100000D+01  0.000000D+00  0.000000D+00  0.449230D+01  0.449230D+01  0.000000D+00  0.000000D+00  0.446967D-02  0.446967D-02
 0.937250D+01  0.000000D+00  0.000000D+00 1 0.100000D+01  0.101661D+01  0.875875D-01  0.000000D+00  0.100000D+01  0.100000D+01  0.000000D+00  0.000000D+00  0.501684D+01  0.501684D+01  0.000000D+00  0.000000D+00  0.510619D-02  0.510619D-02
 0.874659D+01  0.000000D+00  0.000000D+00 1 0.100000D+01  0.101907D+01  0.863194D-01  0.000000D+00  0.100000D+01  0.100000D+01  0.000000D+00  0.000000D+00  0.560759D+01  0.560759D+01  0.000000D+00  0.000000D+00  0.564694D-02  0.564694D-02
 0.816740D+01  0.000000D+00  0.000000D+00 1 0.100000D+01  0.102167D+01  0.851639D-01  0.000000D+00  0.100000D+01  0.100000D+01  0.000000D+00  0.000000D+00  0.626558D+01  0.626558D+01  0.000000D+00  0.000000D+00  0.618158D-02  0.618158D-02
 0.763145D+01  0.000000D+00  0.000000D+00 1 0.100000D+01  0.102440D+01  0.841194D-01  0.000000D+00  0.100000D+01  0.100000D+01  0.000000D+00  0.000000D+00  0.698856D+01  0.698856D+01  0.000000D+00  0.000000D+00  0.671408D-02  0.671408D-02
 0.713550D+01  0.000000D+00  0.000000D+00 1 0.100000D+01  0.102722D+01  0.831724D-01  0.000000D+00  0.100000D+01  0.100000D+01  0.000000D+00  0.000000D+00  0.777230D+01  0.777230D+01  0.000000D+00  0.000000D+00  0.736558D-02  0.736558D-02
 0.667657D+01  0.000000D+00  0.000000D+00 1 0.100000D+01  0.103012D+01  0.822983D-01  0.000000D+00  0.100000D+01  0.100000D+01  0.000000D+00  0.000000D+00  0.861131D+01  0.861131D+01  0.000000D+00  0.000000D+00  0.823980D-02  0.823980D-02
 0.625191D+01  0.000000D+00  0.000000D+00 1 0.100000D+01  0.103308D+01  0.814720D-01  0.000000D+00  0.100000D+01  0.100000D+01  0.000000D+00  0.000000D+00  0.950162D+01  0.950162D+01  0.000000D+00  0.000000D+00  0.940396D-02  0.940396D-02
 0.585894D+01  0.000000D+00  0.000000D+00 1 0.100000D+01  0.103608D+01  0.806840D-01  0.000000D+00  0.100000D+01  0.100000D+01  0.000000D+00  0.000000D+00  0.104484D+02  0.104484D+02  0.000000D+00  0.000000D+00  0.106187D-01  0.106187D-01
 0.549530D+01  0.000000D+00  0.000000D+00 1 0.100000D+01  0.103914D+01  0.799255D-01  0.000000D+00  0.100000D+01  0.100000D+01  0.000000D+00  0.000000D+00  0.114723D+02  0.114723D+02  0.000000D+00  0.000000D+00  0.122896D-01  0.122896D-01
 0.515882D+01  0.000000D+00  0.000000D+00 1 0.100000D+01  0.104230D+01  0.791641D-01  0.000000D+00  0.100000D+01  0.100000D+01  0.000000D+00  0.000000D+00  0.126116D+02  0.126116D+02  0.000000D+00  0.000000D+00  0.150811D-01  0.150811D-01
 0.484744D+01  0.000000D+00  0.000000D+00 1 0.100000D+01  0.104570D+01  0.783566D-01  0.000000D+00  0.100000D+01  0.100000D+01  0.000000D+00  0.000000D+00  0.139286D+02  0.139286D+02  0.000000D+00  0.000000D+00  0.195763D-01  0.195763D-01
 0.455932D+01  0.000000D+00  0.000000D+00 1 0.100000D+01  0.104934D+01  0.774603D-01  0.000000D+00  0.100000D+01  0.100000D+01  0.000000D+00  0.000000D+00  0.153987D+02  0.153987D+02  0.000000D+00  0.000000D+00  0.264330D-01  0.264330D-01
 0.429270D+01  0.000000D+00  0.000000D+00 1 0.100000D+01  0.105263D+01  0.764343D-01  0.000000D+00  0.100000D+01  0.100000D+01  0.000000D+00  0.000000D+00  0.167926D+02  0.167926D+02  0.000000D+00  0.000000D+00  0.360580D-01  0.360580D-01
 0.404598D+01  0.000000D+00  0.000000D+00 1 0.100000D+01  0.105489D+01  0.752567D-01  0.000000D+00  0.100000D+01  0.100000D+01  0.000000D+00  0.000000D+00  0.178459D+02  0.178459D+02  0.000000D+00  0.000000D+00  0.471825D-01  0.471825D-01
 0.381768D+01  0.000000D+00  0.000000D+00 1 0.100000D+01  0.105593D+01  0.739259D-01  0.000000D+00  0.100000D+01  0.100000D+01  0.000000D+00  0.000000D+00  0.184447D+02  0.184447D+02  0.000000D+00  0.000000D+00  0.591178D-01  0.591178D-01
 0.360642D+01  0.000000D+00  0.000000D+00 1 0.100000D+01  0.105610D+01  0.724258D-01  0.000000D+00  0.100001D+01  0.100000D+01  0.000000D+00  0.000000D+00  0.186931D+02  0.186931D+02  0.000000D+00  0.000000D+00  0.732890D-01  0.732890D-01
 0.341093D+01  0.000000D+00  0.000000D+00 1 0.100000D+01  0.105570D+01  0.707263D-01  0.000000D+00  0.100001D+01  0.100000D+01  0.000000D+00  0.000000D+00  0.187932D+02  0.187932D+02  0.000000D+00  0.000000D+00  0.902628D-01  0.902628D-01
 0.323004D+01  0.000000D+00  0.000000D+00 1 0.100000D+01  0.105469D+01  0.688216D-01  0.000000D+00  0.100001D+01  0.100000D+01  0.000000D+00  0.000000D+00  0.187950D+02  0.187950D+02  0.000000D+00  0.000000D+00  0.108211D+00  0.108211D+00
 0.306264D+01  0.000000D+00  0.000000D+00 1 0.100001D+01  0.105292D+01  0.667151D-01  0.000000D+00  0.100001D+01  0.100000D+01  0.000000D+00  0.000000D+00  0.186567D+02  0.186567D+02  0.000000D+00  0.000000D+00  0.127999D+00  0.127999D+00
 0.290775D+01  0.000000D+00  0.000000D+00 1 0.100001D+01  0.105031D+01  0.644063D-01  0.000000D+00  0.100001D+01  0.100000D+01  0.000000D+00  0.000000D+00  0.183497D+02  0.183497D+02  0.000000D+00  0.000000D+00  0.148272D+00  0.148272D+00
 0.276441D+01  0.000000D+00  0.000000D+00 1 0.100001D+01  0.104682D+01  0.618948D-01  0.000000D+00  0.100001D+01  0.100000D+01  0.000000D+00  0.000000D+00  0.178344D+02  0.178344D+02  0.000000D+00  0.000000D+00  0.169043D+00  0.169043D+00
 0.263178D+01  0.000000D+00  0.000000D+00 1 0.100001D+01  0.104246D+01  0.591876D-01  0.000000D+00  0.100001D+01  0.100000D+01  0.000000D+00  0.000000D+00  0.170770D+02  0.170770D+02  0.000000D+00  0.000000D+00  0.187275D+00  0.187275D+00
 0.250904D+01  0.000000D+00  0.000000D+00 1 0.100001D+01  0.103731D+01  0.563034D-01  0.000000D+00  0.100001D+01  0.100000D+01  0.000000D+00  0.000000D+00  0.160636D+02  0.160636D+02  0.000000D+00  0.000000D+00  0.201772D+00  0.201772D+00
 0.239547D+01  0.000000D+00  0.000000D+00 1 0.100001D+01  0.103147D+01  0.532529D-01  0.000000D+00  0.100001D+01  0.100000D+01  0.000000D+00  0.000000D+00  0.148071D+02  0.148071D+02  0.000000D+00  0.000000D+00  0.212041D+00  0.212041D+00
 0.229038D+01  0.000000D+00  0.000000D+00 1 0.100001D+01  0.102513D+01  0.500354D-01  0.000000D+00  0.100001D+01  0.100000D+01  0.000000D+00  0.000000D+00  0.131953D+02  0.131953D+02  0.000000D+00  0.000000D+00  0.215135D+00  0.215135D+00
 0.219313D+01  0.000000D+00  0.000000D+00 1 0.100001D+01  0.101870D+01  0.466595D-01  0.000000D+00  0.100001D+01  0.100000D+01  0.000000D+00  0.000000D+00  0.111833D+02  0.111833D+02  0.000000D+00  0.000000D+00  0.205674D+00  0.205674D+00
 0.210314D+01  0.000000D+00  0.000000D+00 1 0.100001D+01  0.101258D+01  0.431804D-01  0.000000D+00  0.100001D+01  0.100000D+01  0.000000D+00  0.000000D+00  0.909384D+01  0.909384D+01  0.000000D+00  0.000000D+00  0.183601D+00  0.183601D+00
 0.201987D+01  0.000000D+00  0.000000D+00 1 0.100001D+01  0.100684D+01  0.396552D-01  0.000000D+00  0.100002D+01  0.100000D+01  0.000000D+00  0.000000D+00  0.720470D+01  0.720470D+01  0.000000D+00  0.000000D+00  0.158419D+00  0.158419D+00
 0.194281D+01  0.000000D+00  0.000000D+00 1 0.100001D+01  0.100131D+01  0.361007D-01  0.000000D+00  0.100002D+01  0.100000D+01  0.000000D+00  0.000000D+00  0.552537D+01  0.552537D+01  0.000000D+00  0.000000D+00  0.131892D+00  0.131892D+00
 0.187151D+01  0.000000D+00  0.000000D+00 1 0.100001D+01  0.995818D+00  0.325268D-01  0.000000D+00  0.100002D+01  0.100000D+01  0.000000D+00  0.000000D+00  0.404935D+01  0.404935D+01  0.000000D+00  0.000000D+00  0.104413D+00  0.104413D+00
 0.180553D+01  0.000000D+00  0.000000D+00 1 0.100001D+01  0.990174D+00  0.289475D-01  0.000000D+00  0.100002D+01  0.100001D+01  0.000000D+00  0.000000D+00  0.288061D+01  0.288061D+01  0.000000D+00  0.000000D+00  0.796585D-01  0.796585D-01
 0.174447D+01  0.000000D+00  0.000000D+00 1 0.100001D+01  0.984054D+00  0.253848D-01  0.000000D+00  0.100002D+01  0.100001D+01  0.000000D+00  0.000000D+00  0.219725D+01  0.219725D+01  0.000000D+00  0.000000D+00  0.645821D-01  0.645821D-01
 0.168797D+01  0.000000D+00  0.000000D+00 1 0.100001D+01  0.976962D+00  0.218576D-01  0.000000D+00  0.100002D+01  0.100001D+01  0.000000D+00  0.000000D+00  0.218264D+01  0.218264D+01  0.000000D+00  0.000000D+00  0.683831D-01  0.683831D-01
 0.163569D+01  0.000000D+00  0.000000D+00 1 0.100002D+01  0.968256D+00  0.183329D-01  0.000000D+00  0.100002D+01  0.100001D+01  0.000000D+00  0.000000D+00  0.300583D+01  0.300583D+01  0.000000D+00  0.000000D+00  0.103468D+00  0.103468D+00
 0.158731D+01  0.000000D+00  0.000000D+00 1 0.100002D+01  0.957246D+00  0.147800D-01  0.000000D+00  0.100002D+01  0.100001D+01  0.000000D+00  0.000000D+00  0.478008D+01  0.478008D+01  0.000000D+00  0.000000D+00  0.180186D+00  0.180186D+00
 0.154255D+01  0.000000D+00  0.000000D+00 1 0.100001D+01  0.943313D+00  0.111826D-01  0.000000D+00  0.100002D+01  0.100001D+01  0.000000D+00  0.000000D+00  0.750866D+01  0.750866D+01  0.000000D+00  0.000000D+00  0.313294D+00  0.313294D+00
 0.150112D+01  0.000000D+00  0.000000D+00 1 0.100001D+01  0.926018D+00  0.751997D-02  0.000000D+00  0.100003D+01  0.100001D+01  0.000000D+00  0.000000D+00  0.110705D+02  0.110705D+02  0.000000D+00  0.000000D+00  0.509152D+00  0.509152D+00
 0.146279D+01  0.000000D+00  0.000000D+00 1 0.100002D+01  0.905216D+00  0.380239D-02  0.000000D+00  0.100003D+01  0.100001D+01  0.000000D+00  0.000000D+00  0.152496D+02  0.152496D+02  0.000000D+00  0.000000D+00  0.769092D+00  0.769092D+00
 0.142732D+01  0.000000D+00  0.000000D+00 1 0.100002D+01  0.881295D+00  0.401063D-04  0.000000D+00  0.100003D+01  0.100001D+01  0.000000D+00  0.000000D+00  0.191258D+02  0.191258D+02  0.000000D+00  0.000000D+00  0.105487D+01  0.105487D+01
 0.139449D+01  0.000000D+00  0.000000D+00 1 0.100002D+01  0.856119D+00 -0.369128D-02  0.000000D+00  0.100003D+01  0.100001D+01  0.000000D+00  0.000000D+00  0.215798D+02  0.215798D+02  0.000000D+00  0.000000D+00  0.125161D+01  0.125161D+01
 0.136412D+01  0.000000D+00  0.000000D+00 1 0.100002D+01  0.832226D+00 -0.728434D-02  0.000000D+00  0.100003D+01  0.100001D+01  0.000000D+00  0.000000D+00  0.228495D+02  0.228495D+02  0.000000D+00  0.000000D+00  0.136489D+01  0.136489D+01
 0.133601D+01  0.000000D+00  0.000000D+00 1 0.100003D+01  0.810538D+00 -0.106412D-01  0.000000D+00  0.100003D+01  0.100001D+01  0.000000D+00  0.000000D+00  0.236978D+02  0.236978D+02  0.000000D+00  0.000000D+00  0.139963D+01  0.139963D+01
 0.131001D+01  0.000000D+00  0.000000D+00 1 0.100003D+01  0.790853D+00 -0.136420D-01  0.000000D+00  0.100004D+01  0.100001D+01  0.000000D+00  0.000000D+00  0.243371D+02  0.243371D+02  0.000000D+00  0.000000D+00  0.135387D+01  0.135387D+01
 0.128594D+01  0.000000D+00  0.000000D+00 1 0.100003D+01  0.773011D+00 -0.162536D-01  0.000000D+00  0.100004D+01  0.100001D+01  0.000000D+00  0.000000D+00  0.247922D+02  0.247922D+02  0.000000D+00  0.000000D+00  0.129598D+01  0.129598D+01
 0.126367D+01  0.000000D+00  0.000000D+00 1 0.100003D+01  0.756818D+00 -0.185299D-01  0.000000D+00  0.100004D+01  0.100001D+01  0.000000D+00  0.000000D+00  0.250818D+02  0.250818D+02  0.000000D+00  0.000000D+00  0.123932D+01  0.123932D+01
 0.124306D+01  0.000000D+00  0.000000D+00 1 0.100003D+01  0.742070D+00 -0.205626D-01  0.000000D+00  0.100004D+01  0.100001D+01  0.000000D+00  0.000000D+00  0.252202D+02  0.252202D+02  0.000000D+00  0.000000D+00  0.123111D+01  0.123111D+01
 0.122399D+01  0.000000D+00  0.000000D+00 1 0.100003D+01  0.728563D+00 -0.224381D-01  0.000000D+00  0.100004D+01  0.100001D+01  0.000000D+00  0.000000D+00  0.252086D+02  0.252086D+02  0.000000D+00  0.000000D+00  0.123948D+01  0.123948D+01
 0.120635D+01  0.000000D+00  0.000000D+00 1 0.100003D+01  0.716099D+00 -0.242342D-01  0.000000D+00  0.100004D+01  0.100001D+01  0.000000D+00  0.000000D+00  0.250545D+02  0.250545D+02  0.000000D+00  0.000000D+00  0.131106D+01  0.131106D+01
 0.119002D+01  0.000000D+00  0.000000D+00 1 0.100004D+01  0.704510D+00 -0.260792D-01  0.000000D+00  0.100005D+01  0.100001D+01  0.000000D+00  0.000000D+00  0.247666D+02  0.247666D+02  0.000000D+00  0.000000D+00  0.149743D+01  0.149743D+01
 0.117491D+01  0.000000D+00  0.000000D+00 1 0.100004D+01  0.693670D+00 -0.280223D-01  0.000000D+00  0.100005D+01  0.100001D+01  0.000000D+00  0.000000D+00  0.243365D+02  0.243365D+02  0.000000D+00  0.000000D+00  0.164864D+01  0.164864D+01
 0.116093D+01  0.000000D+00  0.000000D+00 1 0.100004D+01  0.683468D+00 -0.299952D-01  0.000000D+00  0.100005D+01  0.100001D+01  0.000000D+00  0.000000D+00  0.237614D+02  0.237614D+02  0.000000D+00  0.000000D+00  0.172800D+01  0.172800D+01
 0.114799D+01  0.000000D+00  0.000000D+00 1 0.100004D+01  0.673773D+00 -0.318747D-01  0.000000D+00  0.100005D+01  0.100001D+01  0.000000D+00  0.000000D+00  0.230282D+02  0.230282D+02  0.000000D+00  0.000000D+00  0.164894D+01  0.164894D+01
 0.113602D+01  0.000000D+00  0.000000D+00 1 0.100004D+01  0.664454D+00 -0.336717D-01  0.000000D+00  0.100005D+01  0.100001D+01  0.000000D+00  0.000000D+00  0.221593D+02  0.221593D+02  0.000000D+00  0.000000D+00  0.172244D+01  0.172244D+01
 0.112494D+01  0.000000D+00  0.000000D+00 1 0.100004D+01  0.655393D+00 -0.353544D-01  0.000000D+00  0.100006D+01  0.100001D+01  0.000000D+00  0.000000D+00  0.211206D+02  0.211206D+02  0.000000D+00  0.000000D+00  0.153981D+01  0.153981D+01
 0.111469D+01  0.000000D+00  0.000000D+00 1 0.100004D+01  0.646452D+00 -0.368965D-01  0.000000D+00  0.100006D+01  0.100001D+01  0.000000D+00  0.000000D+00  0.199623D+02  0.199623D+02  0.000000D+00  0.000000D+00  0.152828D+01  0.152828D+01
 0.110520D+01  0.000000D+00  0.000000D+00 1 0.100005D+01  0.637542D+00 -0.384598D-01  0.000000D+00  0.100006D+01  0.100002D+01  0.000000D+00  0.000000D+00  0.186921D+02  0.186921D+02  0.000000D+00  0.000000D+00  0.163053D+01  0.163053D+01
 0.109642D+01  0.000000D+00  0.000000D+00 1 0.100005D+01  0.628645D+00 -0.399417D-01  0.000000D+00  0.100006D+01  0.100002D+01  0.000000D+00  0.000000D+00  0.172748D+02  0.172748D+02  0.000000D+00  0.000000D+00  0.137697D+01  0.137697D+01
 0.108830D+01  0.000000D+00  0.000000D+00 1 0.100005D+01  0.619718D+00 -0.412043D-01  0.000000D+00  0.100007D+01  0.100002D+01  0.000000D+00  0.000000D+00  0.157569D+02  0.157569D+02  0.000000D+00  0.000000D+00  0.116666D+01  0.116666D+01
 0.108078D+01  0.000000D+00  0.000000D+00 1 0.100005D+01  0.610687D+00 -0.424262D-01  0.000000D+00  0.100007D+01  0.100002D+01  0.000000D+00  0.000000D+00  0.141181D+02  0.141181D+02  0.000000D+00  0.000000D+00  0.123166D+01  0.123166D+01
 0.107383D+01  0.000000D+00  0.000000D+00 1 0.100005D+01  0.601494D+00 -0.435894D-01  0.000000D+00  0.100007D+01  0.100002D+01  0.000000D+00  0.000000D+00  0.121728D+02  0.121728D+02  0.000000D+00  0.000000D+00  0.943294D+00  0.943294D+00
 0.106739D+01  0.000000D+00  0.000000D+00 1 0.100005D+01  0.592043D+00 -0.445810D-01  0.000000D+00  0.100007D+01  0.100002D+01  0.000000D+00  0.000000D+00  0.986992D+01  0.986992D+01  0.000000D+00  0.000000D+00  0.733180D+00  0.733180D+00
 0.106143D+01  0.000000D+00  0.000000D+00 1 0.100005D+01  0.582203D+00 -0.455758D-01  0.000000D+00  0.100007D+01  0.100002D+01  0.000000D+00  0.000000D+00  0.713896D+01  0.713896D+01  0.000000D+00  0.000000D+00  0.641486D+00  0.641486D+00
 0.105592D+01  0.000000D+00  0.000000D+00 1 0.100005D+01  0.571866D+00 -0.464953D-01  0.000000D+00  0.100008D+01  0.100002D+01  0.000000D+00  0.000000D+00  0.384218D+01  0.384218D+01  0.000000D+00  0.000000D+00  0.273017D+00  0.273017D+00
 0.105082D+01  0.000000D+00  0.000000D+00 1 0.100005D+01  0.560894D+00 -0.472047D-01  0.000000D+00  0.100008D+01  0.100003D+01  0.000000D+00  0.000000D+00  0.130489D+00  0.130489D+00  0.000000D+00  0.000000D+00  0.533665D-04  0.533665D-04
 0.104610D+01  0.000000D+00  0.000000D+00 1 0.100005D+01  0.549134D+00 -0.479760D-01  0.000000D+00  0.100008D+01  0.100003D+01  0.000000D+00  0.000000D+00 -0.386490D+01  0.386490D+01  0.000000D+00  0.000000D+00 -0.406402D+00 -0.406402D+00
 0.104174D+01  0.000000D+00  0.000000D+00 1 0.100005D+01  0.536489D+00 -0.487270D-01  0.000000D+00  0.100008D+01  0.100003D+01  0.000000D+00  0.000000D+00 -0.842660D+01  0.842660D+01  0.000000D+00  0.000000D+00 -0.607137D+00 -0.607137D+00
 0.103770D+01  0.000000D+00  0.000000D+00 1 0.100005D+01  0.522857D+00 -0.491860D-01  0.000000D+00  0.100008D+01  0.100004D+01  0.000000D+00  0.000000D+00 -0.136049D+02  0.136049D+02  0.000000D+00  0.000000D+00 -0.569521D+00 -0.569521D+00
 0.103396D+01  0.000000D+00  0.000000D+00 1 0.100004D+01  0.508040D+00 -0.495417D-01  0.000000D+00  0.100008D+01  0.100004D+01  0.000000D+00  0.000000D+00 -0.194497D+02  0.194497D+02  0.000000D+00  0.000000D+00 -0.105614D+01 -0.105614D+01
 0.103050D+01  0.000000D+00  0.000000D+00 1 0.100004D+01  0.491845D+00 -0.500131D-01  0.000000D+00  0.100009D+01  0.100005D+01  0.000000D+00  0.000000D+00 -0.260819D+02  0.260819D+02  0.000000D+00  0.000000D+00 -0.218831D+01 -0.218831D+01
 0.102729D+01  0.000000D+00  0.000000D+00 1 0.100003D+01  0.474178D+00 -0.503485D-01  0.000000D+00  0.100009D+01  0.100005D+01  0.000000D+00  0.000000D+00 -0.337886D+02  0.337886D+02  0.000000D+00  0.000000D+00 -0.639061D+00 -0.639061D+00
 0.102433D+01  0.000000D+00  0.000000D+00 1 0.100003D+01  0.454912D+00 -0.502920D-01  0.000000D+00  0.100009D+01  0.100006D+01  0.000000D+00  0.000000D+00 -0.424068D+02  0.424068D+02  0.000000D+00  0.000000D+00  0.170340D+01  0.170340D+01
 0.102159D+01  0.000000D+00  0.000000D+00 1 0.100002D+01  0.433816D+00 -0.501727D-01  0.000000D+00  0.100009D+01  0.100006D+01  0.000000D+00  0.000000D+00 -0.517894D+02  0.517894D+02  0.000000D+00  0.000000D+00  0.932233D-01  0.932233D-01
 0.101905D+01  0.000000D+00  0.000000D+00 1 0.100002D+01  0.410670D+00 -0.501443D-01  0.000000D+00  0.100009D+01  0.100007D+01  0.000000D+00  0.000000D+00 -0.623139D+02  0.623139D+02  0.000000D+00  0.000000D+00  0.602432D+00  0.602432D+00
 0.101671D+01  0.000000D+00  0.000000D+00 1 0.100001D+01  0.385715D+00 -0.499496D-01  0.000000D+00  0.100009D+01  0.100008D+01  0.000000D+00  0.000000D+00 -0.726177D+02  0.726177D+02  0.000000D+00  0.000000D+00  0.549719D+01  0.549719D+01
 0.101453D+01  0.000000D+00  0.000000D+00 1 0.999996D+00  0.359750D+00 -0.494266D-01  0.000000D+00  0.100008D+01  0.100009D+01  0.000000D+00  0.000000D+00 -0.789060D+02  0.789060D+02  0.000000D+00  0.000000D+00  0.132371D+02  0.132371D+02
 0.101252D+01  0.000000D+00  0.000000D+00 1 0.999987D+00  0.333390D+00 -0.487194D-01  0.000000D+00  0.100008D+01  0.100009D+01  0.000000D+00  0.000000D+00 -0.775813D+02  0.775813D+02  0.000000D+00  0.000000D+00  0.142009D+02  0.142009D+02
 0.101066D+01  0.000000D+00  0.000000D+00 1 0.999976D+00  0.306758D+00 -0.480680D-01  0.000000D+00  0.100008D+01  0.100010D+01  0.000000D+00  0.000000D+00 -0.674493D+02  0.674493D+02  0.000000D+00  0.000000D+00  0.111110D+02  0.111110D+02
 0.100894D+01  0.000000D+00  0.000000D+00 1 0.999963D+00  0.280129D+00 -0.473874D-01  0.000000D+00  0.100007D+01  0.100011D+01  0.000000D+00  0.000000D+00 -0.495973D+02  0.495973D+02  0.000000D+00  0.000000D+00  0.114218D+02  0.114218D+02
 0.100735D+01  0.000000D+00  0.000000D+00 1 0.999952D+00  0.254101D+00 -0.466497D-01  0.000000D+00  0.100007D+01  0.100011D+01  0.000000D+00  0.000000D+00 -0.261667D+02  0.261667D+02  0.000000D+00  0.000000D+00  0.592814D+01  0.592814D+01
 0.100587D+01  0.000000D+00  0.000000D+00 1 0.999943D+00  0.229244D+00 -0.459625D-01  0.000000D+00  0.100006D+01  0.100012D+01  0.000000D+00  0.000000D+00 -0.112836D+00  0.112836D+00  0.000000D+00  0.000000D+00 -0.846096D-01 -0.846096D-01
 0.100451D+01  0.000000D+00  0.000000D+00 1 0.999934D+00  0.205804D+00 -0.457013D-01  0.000000D+00  0.100006D+01  0.100013D+01  0.000000D+00  0.000000D+00  0.274347D+02  0.274347D+02  0.000000D+00  0.000000D+00  0.151862D+01  0.151862D+01
 0.100325D+01  0.000000D+00  0.000000D+00 1 0.999926D+00  0.183723D+00 -0.470756D-01  0.000000D+00  0.100006D+01  0.100013D+01  0.000000D+00  0.000000D+00  0.566830D+02  0.566830D+02  0.000000D+00  0.000000D+00  0.585091D+02  0.585091D+02
 0.100208D+01  0.000000D+00  0.000000D+00 1 0.999919D+00  0.162900D+00 -0.510085D-01  0.000000D+00  0.100006D+01  0.100014D+01  0.000000D+00  0.000000D+00  0.856927D+02  0.856927D+02  0.000000D+00  0.000000D+00  0.189876D+03  0.189876D+03
 0.100100D+01  0.000000D+00  0.000000D+00 1 0.999949D+00  0.142846D+00 -0.578910D-01  0.000000D+00  0.100011D+01  0.100016D+01  0.000000D+00  0.000000D+00  0.111373D+03  0.111373D+03  0.000000D+00  0.000000D+00  0.422289D+03  0.422289D+03
 0.100000D+01  0.000000D+00  0.000000D+00 1 0.999957D+00  0.126007D+00 -0.363082D-01  0.000000D+00  0.100014D+01  0.100018D+01  0.000000D+00  0.000000D+00  0.639042D+02  0.639042D+02  0.000000D+00  0.000000D+00 -0.305643D+04 -0.305643D+04
 0.300000D+02 -0.500045D-03  0.000000D+00 1 0.100000D+01  0.994754D+00  0.110686D+00  0.000000D+00  0.100000D+01  0.100000D+01  0.000000D+00  0.000000D+00  0.680580D-01  0.680580D-01  0.000000D+00  0.000000D+00 -0.264157D-16 -0.264157D-16
 0.278343D+02 -0.500045D-03  0.000000D+00 1 0.999999D+00  0.995230D+00  0.111492D+00  0.000000D+00  0.999999D+00  0.100000D+01  0.000000D+00  0.000000D+00  0.174227D+00  0.174227D+00  0.000000D+00  0.000000D+00 -0.678038D-04 -0.678038D-04
 0.258303D+02 -0.500045D-03  0.000000D+00 1 0.999999D+00  0.996224D+00  0.111247D+00  0.000000D+00  0.999999D+00  0.100000D+01  0.000000D+00  0.000000D+00  0.385685D+00  0.385685D+00  0.000000D+00  0.000000D+00  0.210052D-03  0.210052D-03
 0.239758D+02 -0.500045D-03  0.000000D+00 1 0.100000D+01  0.997514D+00  0.108956D+00  0.000000D+00  0.100000D+01  0.100000D+01  0.000000D+00  0.000000D+00  0.661232D+00  0.661232D+00  0.000000D+00  0.000000D+00  0.458295D-03  0.458295D-03
 0.222598D+02 -0.500045D-03  0.000000D+00 1 0.100000D+01  0.998917D+00  0.106658D+00  0.000000D+00  0.100000D+01  0.100000D+01  0.000000D+00  0.000000D+00  0.968769D+00  0.968769D+00  0.000000D+00  0.000000D+00  0.621779D-03  0.621779D-03
 0.206719D+02 -0.500045D-03  0.000000D+00 1 0.100000D+01  0.100033D+01  0.104687D+00  0.000000D+00  0.100000D+01  0.100000D+01  0.000000D+00  0.000000D+00  0.128577D+01  0.128577D+01  0.000000D+00  0.000000D+00  0.766522D-03  0.766522D-03
 0.192025D+02 -0.500045D-03  0.000000D+00 1 0.100000D+01  0.100169D+01  0.102965D+00  0.000000D+00  0.100000D+01  0.100000D+01  0.000000D+00  0.000000D+00  0.160005D+01  0.160005D+01  0.000000D+00  0.000000D+00  0.918235D-03  0.918235D-03
 0.178428D+02 -0.500045D-03  0.000000D+00 1 0.100000D+01  0.100302D+01  0.101379D+00  0.000000D+00  0.100000D+01  0.100000D+01  0.000000D+00  0.000000D+00  0.191029D+01  0.191029D+01  0.000000D+00  0.000000D+00  0.113277D-02  0.113277D-02
 0.165846D+02 -0.500045D-03  0.000000D+00 1 0.100000D+01  0.100433D+01  0.998013D-01  0.000000D+00  0.100000D+01  0.100000D+01  0.000000D+00  0.000000D+00  0.221945D+01  0.221945D+01  0.000000D+00  0.000000D+00  0.147095D-02  0.147095D-02
 0.154203D+02 -0.500045D-03  0.000000D+00 1 0.100000D+01  0.100567D+01  0.981872D-01  0.000000D+00  0.100000D+01  0.100000D+01  0.000000D+00  0.000000D+00  0.253066D+01  0.253066D+01  0.000000D+00  0.000000D+00  0.183542D-02  0.183542D-02
 0.143429D+02 -0.500045D-03  0.000000D+00 1 0.100000D+01  0.100709D+01  0.965587D-01  0.000000D+00  0.100000D+01  0.100000D+01  0.000000D+00  0.000000D+00  0.284939D+01  0.284939D+01  0.000000D+00  0.000000D+00  0.224466D-02  0.224466D-02
 0.133460D+02 -0.500045D-03  0.000000D+00 1 0.100000D+01  0.100862D+01  0.949409D-01  0.000000D+00  0.100000D+01  0.100000D+01  0.000000D+00  0.000000D+00  0.318399D+01  0.318399D+01  0.000000D+00  0.000000D+00  0.266182D-02  0.266182D-02
 0.124235D+02 -0.500045D-03  0.000000D+00 1 0.100000D+01  0.101033D+01  0.933648D-01  0.000000D+00  0.100000D+01  0.100000D+01  0.000000D+00  0.000000D+00  0.354543D+01  0.354543D+01  0.000000D+00  0.000000D+00  0.309534D-02  0.309534D-02
 0.115698D+02 -0.500045D-03  0.000000D+00 1 0.100000D+01  0.101224D+01  0.918430D-01  0.000000D+00  0.100000D+01  0.100000D+01  0.000000D+00  0.000000D+00  0.394601D+01  0.394601D+01  0.000000D+00  0.000000D+00  0.359176D-02  0.359176D-02
 0.107799D+02 -0.500045D-03  0.000000D+00 1 0.100000D+01  0.101437D+01  0.903713D-01  0.000000D+00  0.100000D+01  0.100000D+01  0.000000D+00  0.000000D+00  0.439749D+01  0.439749D+01  0.000000D+00  0.000000D+00  0.419383D-02  0.419383D-02
 0.100489D+02 -0.500045D-03  0.000000D+00 1 0.100000D+01  0.101673D+01  0.889473D-01  0.000000D+00  0.100000D+01  0.100000D+01  0.000000D+00  0.000000D+00  0.490971D+01  0.490971D+01  0.000000D+00  0.000000D+00  0.488612D-02  0.488612D-02
 0.937250D+01 -0.500045D-03  0.000000D+00 1 0.100000D+01  0.101931D+01  0.875856D-01  0.000000D+00  0.100000D+01  0.100000D+01  0.000000D+00  0.000000D+00  0.548995D+01  0.548995D+01  0.000000D+00  0.000000D+00  0.558917D-02  0.558917D-02
 0.874659D+01 -0.500045D-03  0.000000D+00 1 0.100000D+01  0.102209D+01  0.863172D-01  0.000000D+00  0.100000D+01  0.100000D+01  0.000000D+00  0.000000D+00  0.614301D+01  0.614301D+01  0.000000D+00  0.000000D+00  0.618791D-02  0.618791D-02
 0.816740D+01 -0.500045D-03  0.000000D+00 1 0.100000D+01  0.102505D+01  0.851613D-01  0.000000D+00  0.100000D+01  0.100000D+01  0.000000D+00  0.000000D+00  0.687057D+01  0.687057D+01  0.000000D+00  0.000000D+00  0.678064D-02  0.678064D-02
 0.763145D+01 -0.500045D-03  0.000000D+00 1 0.100000D+01  0.102817D+01  0.841165D-01  0.000000D+00  0.100000D+01  0.100000D+01  0.000000D+00  0.000000D+00  0.767087D+01  0.767087D+01  0.000000D+00  0.000000D+00  0.737238D-02  0.737238D-02
 0.713550D+01 -0.500045D-03  0.000000D+00 1 0.100000D+01  0.103142D+01  0.831691D-01  0.000000D+00  0.100000D+01  0.100000D+01  0.000000D+00  0.000000D+00  0.853994D+01  0.853994D+01  0.000000D+00  0.000000D+00  0.809644D-02  0.809644D-02
 0.667657D+01 -0.500045D-03  0.000000D+00 1 0.100000D+01  0.103477D+01  0.822947D-01  0.000000D+00  0.100000D+01  0.100000D+01  0.000000D+00  0.000000D+00  0.947366D+01  0.947366D+01  0.000000D+00  0.000000D+00  0.906899D-02  0.906899D-02
 0.625191D+01 -0.500045D-03  0.000000D+00 1 0.100000D+01  0.103821D+01  0.814680D-01  0.000000D+00  0.100000D+01  0.100000D+01  0.000000D+00  0.000000D+00  0.104689D+02  0.104689D+02  0.000000D+00  0.000000D+00  0.103666D-01  0.103666D-01