 variables = "X","Y","Z","Cp","Cfx","Cfy","Cfz","Cf","T","u","v","w","yplus"
 zone i=         151
   1.00000000000000       1.665324653670056E-017  0.000000000000000E+000
  0.167030035137259       8.327654608136113E-003 -2.279836202505421E-004
  0.000000000000000E+000  8.555638228386654E-003   1.00019254678749     
  0.157430795058953      -3.026603920523362E-002  0.000000000000000E+000
   3.48941586962524     
  0.999001425599671       5.447267690042997E-005  0.000000000000000E+000
  0.153629348968252       7.788505566173376E-003 -4.242454515293129E-004
  0.000000000000000E+000  8.212751017702689E-003   1.00020128503602     
  0.145942006005443      -5.500000108280492E-003  0.000000000000000E+000
   3.30686610706341     
  0.997949997818270       1.116616879644300E-004  0.000000000000000E+000
  0.166728538855295       7.293170750417751E-003 -3.960232409775427E-004
  0.000000000000000E+000  7.689193991395294E-003   1.00020176650943     
  0.136646043153778      -5.410207265250245E-003  0.000000000000000E+000
   3.19996294863784     
  0.996843037128316       1.716701774105140E-004  0.000000000000000E+000
  0.174010787372254       6.872087534696500E-003 -3.721010053767382E-004
  0.000000000000000E+000  7.244188540073238E-003   1.00020168991741     
  0.128740831293170      -5.387389313612200E-003  0.000000000000000E+000
   3.10618767732852     
  0.995677746198344       2.346938777538863E-004  0.000000000000000E+000
  0.180208901520018       6.523865434261590E-003 -3.522016250989441E-004
  0.000000000000000E+000  6.876067059360533E-003   1.00020156532873     
  0.122204139108197      -5.358131017988643E-003  0.000000000000000E+000
   3.02645526400574     
  0.994451193364049       3.007928008083059E-004  0.000000000000000E+000
  0.185450400486388       6.238101201730377E-003 -3.355756470691639E-004
  0.000000000000000E+000  6.573676848799542E-003   1.00020138435046     
  0.116840585132696      -5.322106520638114E-003  0.000000000000000E+000
   2.95943047912642     
  0.993160320569400       3.701124539357903E-004  0.000000000000000E+000
  0.190476176487437       6.005495793136956E-003 -3.219800787299605E-004
  0.000000000000000E+000  6.327475871866916E-003   1.00020127406736     
  0.112474928565159      -5.291650473866808E-003  0.000000000000000E+000
   2.90373816692961     
  0.991801936040528       4.428260084685768E-004  0.000000000000000E+000
  0.194594938141336       5.820197319431630E-003 -3.108706202856048E-004
  0.000000000000000E+000  6.131067939717235E-003   1.00020117377371     
  0.108996915228808      -5.273243126810868E-003  0.000000000000000E+000
   2.85860340231143     
  0.990372703239448       5.189985854962523E-004  0.000000000000000E+000
  0.197197504879796       5.678091632830466E-003 -3.020454848030628E-004
  0.000000000000000E+000  5.980137117633529E-003   1.00020098265372     
  0.106329418978981      -5.264536932819293E-003  0.000000000000000E+000
   2.82350769505243     
  0.988869149734546       5.988289370959963E-004  0.000000000000000E+000
  0.199669956866273       5.573060553415038E-003 -2.952982571800772E-004
  0.000000000000000E+000  5.868358810595115E-003   1.00020091865730     
  0.104357822501004      -5.260528100531178E-003  0.000000000000000E+000
   2.79729177004093     
  0.987287653567351       6.824581442352054E-004  0.000000000000000E+000
  0.201483497987510       5.499358996415338E-003 -2.899891044591042E-004
  0.000000000000000E+000  5.789348100874442E-003   1.00020088328860     
  0.102974401485192      -5.258184041438789E-003  0.000000000000000E+000
   2.77875885205156     
  0.985624436699843       7.699165229630898E-004  0.000000000000000E+000
  0.203128190516281       5.451908991055339E-003 -2.863062980756663E-004
  0.000000000000000E+000  5.738215289131005E-003   1.00020094320092     
  0.102083560969411      -5.262006186650653E-003  0.000000000000000E+000
   2.76676800256933     
  0.983875589210279       8.616377525778661E-004  0.000000000000000E+000
  0.203771265048545       5.425359187753007E-003 -2.833183143334594E-004
  0.000000000000000E+000  5.708677502086467E-003   1.00020083816040     
  0.101585516966553      -5.259641222661695E-003  0.000000000000000E+000
   2.76005308475996     
  0.982037001885699       9.572376115019621E-004  0.000000000000000E+000
  0.204711356914459       5.413809501942439E-003 -2.814655986633909E-004
  0.000000000000000E+000  5.695275100605831E-003   1.00020057226407     
  0.101369188490242      -5.255529743899468E-003  0.000000000000000E+000
   2.75713957577739     
  0.980104478202655       1.057699935824212E-003  0.000000000000000E+000
  0.205636310137606       5.410594948991491E-003 -2.794971332608611E-004
  0.000000000000000E+000  5.690092082252352E-003   1.00020014639344     
  0.101310419873128      -5.232593747440709E-003  0.000000000000000E+000
   2.75635676295086     
  0.978073553669464       1.161948348956863E-003  0.000000000000000E+000
  0.207821485303157       5.410546160350829E-003 -2.777239828275536E-004
  0.000000000000000E+000  5.688270143178382E-003   1.00019997282873     
  0.101311454096887      -5.200939613196350E-003  0.000000000000000E+000
   2.75637832463770     
  0.975939733923639       1.271478426898274E-003  0.000000000000000E+000
  0.211144797246561       5.408911316480051E-003 -2.760039945805438E-004
  0.000000000000000E+000  5.684915311060595E-003   1.00020018936716     
  0.101283179679652      -5.161044601416778E-003  0.000000000000000E+000
   2.75599596886112     
  0.973698227034776       1.385180156087390E-003  0.000000000000000E+000
  0.213579288845040       5.402442363963349E-003 -2.736596691565440E-004
  0.000000000000000E+000  5.676102033119894E-003   1.00020053449160     
  0.101164803466206      -5.106968226017174E-003  0.000000000000000E+000
   2.75438395096763     
  0.971344194597081       1.504258504303337E-003  0.000000000000000E+000
  0.215469620251724       5.391943468886184E-003 -2.713464943139424E-004
  0.000000000000000E+000  5.663289963200127E-003   1.00020094700914     
  0.100970497321357      -5.059085498162778E-003  0.000000000000000E+000
   2.75174067194375     
  0.968872537262536       1.628001624485897E-003  0.000000000000000E+000
  0.216051888069387       5.381752547655255E-003 -2.686081486103397E-004
  0.000000000000000E+000  5.650360696265595E-003   1.00020117416005     
  0.100781837526603      -5.013602320624394E-003  0.000000000000000E+000
   2.74917807660762     
  0.966278062333970       1.757096938973359E-003  0.000000000000000E+000
  0.217474252150851       5.373537476064470E-003 -2.661908167469650E-004
  0.000000000000000E+000  5.639728292811435E-003   1.00020152258213     
  0.100630081773127      -4.972215229076706E-003  0.000000000000000E+000
   2.74711643832609     
  0.963555373647426       1.891373763395130E-003  0.000000000000000E+000
  0.218639858396273       5.366800516037794E-003 -2.634152726322055E-004
  0.000000000000000E+000  5.630215788669999E-003   1.00020179301411     
  0.100506407537963      -4.924181332151690E-003  0.000000000000000E+000
   2.74543696408743     
  0.960698927782761       2.030904889090778E-003  0.000000000000000E+000
  0.220160538611935       5.361460059520844E-003 -2.608652378195792E-004
  0.000000000000000E+000  5.622325297340423E-003   1.00020211313734     
  0.100408827021113      -4.878519367669519E-003  0.000000000000000E+000
   2.74411216441101     
  0.957703044267799       2.176098169407578E-003  0.000000000000000E+000
  0.221398277957860       5.357163401140795E-003 -2.579926209027412E-004
  0.000000000000000E+000  5.615156022043536E-003   1.00020237137909     
  0.100331144231316      -4.827008717083936E-003  0.000000000000000E+000
   2.74305920881970     
  0.954561846157195       2.326415247496387E-003  0.000000000000000E+000
  0.223001367879533       5.353733956369702E-003 -2.552062204599903E-004
  0.000000000000000E+000  5.608940176829692E-003   1.00020268431414     
  0.100269695967241      -4.775878160826455E-003  0.000000000000000E+000
   2.74222721502656     
  0.951269384357213       2.482757904136671E-003  0.000000000000000E+000
  0.224473449342668       5.350927818317554E-003 -2.521823083372410E-004
  0.000000000000000E+000  5.603110126654795E-003   1.00020296720309     
  0.100220163137331      -4.720711062121215E-003  0.000000000000000E+000
   2.74155878345428     
  0.947819482538107       2.644120805717701E-003  0.000000000000000E+000
  0.226099245905289       5.348894254668022E-003 -2.490825594485641E-004
  0.000000000000000E+000  5.597976814116586E-003   1.00020327110119     
  0.100185185848366      -4.663665820647825E-003  0.000000000000000E+000
   2.74108903063314     
  0.944205942257812       2.811651156899837E-003  0.000000000000000E+000
  0.227859021132645       5.347413635675809E-003 -2.458923298861843E-004
  0.000000000000000E+000  5.593305965561994E-003   1.00020359091999     
  0.100160683009630      -4.604881190423590E-003  0.000000000000000E+000
   2.74076319192694     
  0.940422342196095       2.984205242399509E-003  0.000000000000000E+000
  0.229510994031443       5.346787351298387E-003 -2.424315312804392E-004
  0.000000000000000E+000  5.589218882578826E-003   1.00020388024509     
  0.100152408855658      -4.541175004440340E-003  0.000000000000000E+000
   2.74065943180395     
  0.936462258150449       3.162718150678633E-003  0.000000000000000E+000
  0.231825607172368       5.345593172266983E-003 -2.390211512235105E-004
  0.000000000000000E+000  5.584614323490493E-003   1.00020427648355     
  0.100133559957970      -4.475370344501701E-003  0.000000000000000E+000
   2.74040993730992     
  0.932319101600151       3.346467535361265E-003  0.000000000000000E+000
  0.233567527210425       5.342521273623754E-003 -2.349863466695169E-004
  0.000000000000000E+000  5.577507620293271E-003   1.00020456581401     
  0.100079934412115      -4.398498171686426E-003  0.000000000000000E+000
   2.73968481028013     
  0.927986251584928       3.535462227755561E-003  0.000000000000000E+000
  0.236182904515545       5.336455790402829E-003 -2.311309440867736E-004
  0.000000000000000E+000  5.567586734489602E-003   1.00020500752214     
  9.997003716924029E-002 -4.322570899103068E-003  0.000000000000000E+000
   2.73818823004039     
  0.923457056336885       3.730240913818279E-003  0.000000000000000E+000
  0.237550965972332       5.327693079541094E-003 -2.263643629678901E-004
  0.000000000000000E+000  5.554057442508984E-003   1.00020521696904     
  9.981012592841063E-002 -4.232253467966197E-003  0.000000000000000E+000
   2.73600694297197     
  0.918724734063985       3.928866629792209E-003  0.000000000000000E+000
  0.240536369299889       5.317249193021214E-003 -2.221058186089274E-004
  0.000000000000000E+000  5.539355011630141E-003   1.00020568333932     
  9.961821588342989E-002 -4.150488204188132E-003  0.000000000000000E+000
   2.73338516447471     
  0.913782702004972       4.134308086652536E-003  0.000000000000000E+000
  0.242436633111765       5.305628184476111E-003 -2.167256713757621E-004
  0.000000000000000E+000  5.522353855851874E-003   1.00020594962038     
  9.940495977481514E-002 -4.050610237922224E-003  0.000000000000000E+000
   2.73046955737029     
  0.908624062312831       4.341309162270438E-003  0.000000000000000E+000
  0.244333967051716       5.295209118736444E-003 -2.112857385983735E-004
  0.000000000000000E+000  5.506494857334818E-003   1.00020618662436     
  9.921414658994561E-002 -3.950928556713570E-003  0.000000000000000E+000
   2.72785982818952     
  0.903242385263693       4.554834075679027E-003  0.000000000000000E+000
  0.248000990985474       5.283609905091160E-003 -2.063376716200724E-004
  0.000000000000000E+000  5.489947576711232E-003   1.00020672083330     
  9.900097688650694E-002 -3.855231039166446E-003  0.000000000000000E+000
   2.72493860787387     
  0.897630946103148       4.770477692087010E-003  0.000000000000000E+000
  0.249851691024105       5.269694466997765E-003 -2.000080723655250E-004
  0.000000000000000E+000  5.469702539363290E-003   1.00020693818509     
  9.874514821894595E-002 -3.736322111205251E-003  0.000000000000000E+000
   2.72142686639740     
  0.891783373400719       4.989646083122509E-003  0.000000000000000E+000
  0.254089124760640       5.254681288777350E-003 -1.949565232848076E-004
  0.000000000000000E+000  5.449637812062157E-003   1.00020760439188     
  9.846767870281625E-002 -3.642281375544292E-003  0.000000000000000E+000
   2.71761379887055     
  0.885693421287334       5.213290243712273E-003  0.000000000000000E+000
  0.255989856541419       5.242335597773867E-003 -1.881657199297925E-004
  0.000000000000000E+000  5.430501317703659E-003   1.00020786930777     
  9.824120556845745E-002 -3.520392889325559E-003  0.000000000000000E+000
   2.71450108666691     
  0.879354799790459       5.435549238576376E-003  0.000000000000000E+000
  0.258162133980704       5.236175170829897E-003 -1.815635641832238E-004
  0.000000000000000E+000  5.417738735013121E-003   1.00020813524869     
  9.813061250529871E-002 -3.399628452756390E-003  0.000000000000000E+000
   2.71298594771605     
  0.872761850024891       5.661595916410732E-003  0.000000000000000E+000
  0.262956606413582       5.226714881937665E-003 -1.759578389127394E-004
  0.000000000000000E+000  5.402672720850404E-003   1.00020887004343     
  9.795762077760760E-002 -3.288904732431508E-003  0.000000000000000E+000
   2.71060416448697     
  0.865908887614107       5.888050303986711E-003  0.000000000000000E+000
  0.264693247220521       5.210561017256221E-003 -1.681094659367131E-004
  0.000000000000000E+000  5.378670483192935E-003   1.00020907349317     
  9.766014778720514E-002 -3.140070514509805E-003  0.000000000000000E+000
   2.70649580861853     
  0.858790596690845       6.112150921137999E-003  0.000000000000000E+000
  0.267242619839408       5.194895467497851E-003 -1.609699886005839E-004
  0.000000000000000E+000  5.355865456098435E-003   1.00020937739924     
  9.737113084849122E-002 -3.007615665489217E-003  0.000000000000000E+000
   2.70250046896504     
  0.851402232938537       6.337426796155764E-003  0.000000000000000E+000
  0.271735887898785       5.177157199575202E-003 -1.540467048825722E-004
  0.000000000000000E+000  5.331203904457774E-003   1.00021001380645     
  9.704301045401692E-002 -2.875798008896968E-003  0.000000000000000E+000
   2.69795485698199     
  0.843739242234269       6.559807874772471E-003  0.000000000000000E+000
  0.273962803021732       5.157418740780494E-003 -1.452122886066042E-004
  0.000000000000000E+000  5.302631029387098E-003   1.00021025677322     
  9.667806347812402E-002 -2.711748085981551E-003  0.000000000000000E+000
   2.69288806074060     
  0.835797614343686       6.776554441764220E-003  0.000000000000000E+000
  0.276608944251848       5.141486632070794E-003 -1.371766948102669E-004
  0.000000000000000E+000  5.278663326881061E-003   1.00021055209460     
  9.638384994391042E-002 -2.563377771173665E-003  0.000000000000000E+000
   2.68879882417194     
  0.827574033874230       6.990933322577417E-003  0.000000000000000E+000
  0.281637517704439       5.124646040791410E-003 -1.300059458096577E-004
  0.000000000000000E+000  5.254651986601068E-003   1.00021131367004     
  9.607201634858688E-002 -2.427627371327460E-003  0.000000000000000E+000
   2.68445644419552     
  0.819065622350018       7.200829533666883E-003  0.000000000000000E+000
  0.284097390014495       5.107591088728600E-003 -1.204259881382016E-004
  0.000000000000000E+000  5.228017076866802E-003   1.00021164616354     
  9.575682458693591E-002 -2.250739251951996E-003  0.000000000000000E+000
   2.68005787708631     
  0.810270040767068       7.398615321999188E-003  0.000000000000000E+000
  0.286264666746320       5.096963245559364E-003 -1.108940409445725E-004
  0.000000000000000E+000  5.207857286503937E-003   1.00021185444077     
  9.556183407411968E-002 -2.074989904861372E-003  0.000000000000000E+000
   2.67733585636915     
  0.801185958372473       7.589628713596443E-003  0.000000000000000E+000
  0.290847912895515       5.085882162826333E-003 -1.030534486439672E-004
  0.000000000000000E+000  5.188935611470300E-003   1.00021247602715     
  9.535745544529597E-002 -1.925325253679005E-003  0.000000000000000E+000
   2.67447836688418     
  0.791812627973472       7.772394067772765E-003  0.000000000000000E+000
  0.294797180538126       5.067341804262071E-003 -9.398581955939076E-005
  0.000000000000000E+000  5.161327623821462E-003   1.00021300232403     
  9.501322427642382E-002 -1.752512547930363E-003  0.000000000000000E+000
   2.66965136196628     
  0.782150065254686       7.942422822669317E-003  0.000000000000000E+000
  0.296925291613661       5.047164204574113E-003 -8.328216421009949E-005
  0.000000000000000E+000  5.130446368784212E-003   1.00021319240385     
  9.463823399282409E-002 -1.553449183334831E-003  0.000000000000000E+000
   2.66438005860217     
  0.772199185767239       8.095718475719276E-003  0.000000000000000E+000
  0.299363379287797       5.031517565646795E-003 -7.310636127292775E-005
  0.000000000000000E+000  5.104623926919723E-003   1.00021343621970     
  9.434758905416246E-002 -1.364694562447746E-003  0.000000000000000E+000
   2.66028656857927     
  0.761961923922881       8.235501917519613E-003  0.000000000000000E+000
  0.303324312882523       5.016271544186731E-003 -6.393516102576284E-005
  0.000000000000000E+000  5.080206705212495E-003   1.00021396573603     
  9.406377258301360E-002 -1.191537390322134E-003  0.000000000000000E+000
   2.65628156431128     
  0.751441078648974       8.360036325710233E-003  0.000000000000000E+000
  0.307758370164947       4.996282163313635E-003 -5.443498978616863E-005
  0.000000000000000E+000  5.050717153099803E-003   1.00021462686026     
  9.369056688487926E-002 -1.011950027056599E-003  0.000000000000000E+000
   2.65100364144152     
  0.740640446574066       8.467539394565621E-003  0.000000000000000E+000
  0.310446822772974       4.976424876554332E-003 -4.311764399312676E-005
  0.000000000000000E+000  5.019542520547459E-003   1.00021501569814     
  9.331940066739650E-002 -8.016766636003872E-004  0.000000000000000E+000
   2.64573818211507     
  0.729564815658738       8.549226778783900E-003  0.000000000000000E+000
  0.312419503179399       4.962435570411906E-003 -3.155170732067931E-005
  0.000000000000000E+000  4.993987277732585E-003   1.00021529350701     
  9.305764838095062E-002 -5.870118959155092E-004  0.000000000000000E+000
   2.64201251156119     
  0.718220157151689       8.609815858319162E-003  0.000000000000000E+000
  0.315978012037476       4.949868417257247E-003 -2.137680098055307E-005
  0.000000000000000E+000  4.971245218237800E-003   1.00021586411312     
  9.282164844636696E-002 -3.954475075816974E-004  0.000000000000000E+000
   2.63864347959072     
  0.706613454876314       8.648074977020741E-003  0.000000000000000E+000
  0.319265562543023       4.934002261539482E-003 -1.110752796206338E-005
  0.000000000000000E+000  4.945109789501545E-003   1.00021638206919     
  9.252260663211451E-002 -2.016885188691681E-004  0.000000000000000E+000
   2.63436140189014     
  0.694752788406665       8.662372544331720E-003  0.000000000000000E+000
  0.322746514467099       4.916335751021367E-003 -6.883251329765759E-007
  0.000000000000000E+000  4.917024076154344E-003   1.00021692729206     
  9.218849308975596E-002 -6.220837226286642E-006  0.000000000000000E+000
   2.62955943132244     
  0.682647343539202       8.651157664054129E-003  0.000000000000000E+000
  0.326216960853117       4.900255636941073E-003  1.037641635497699E-005
  0.000000000000000E+000  4.910632053296050E-003   1.00021749447279     
  9.188297466059865E-002  1.994685980763979E-004  0.000000000000000E+000
   2.62514689284992     
  0.670307422204054       8.610315629881678E-003  0.000000000000000E+000
  0.328376228222169       4.889656736601674E-003  2.219675904129614E-005
  0.000000000000000E+000  4.911853495642970E-003   1.00021785185475     
  9.167913731268849E-002  4.186122823464579E-004  0.000000000000000E+000
   2.62217235758930     
  0.657744432187388       8.537819516044324E-003  0.000000000000000E+000
  0.330588367364498       4.884508169925985E-003  3.351023263705257E-005
  0.000000000000000E+000  4.918018402563037E-003   1.00021821929287     
  9.157658434224779E-002  6.296351297281767E-004  0.000000000000000E+000
   2.62063786293419     
  0.644970813927204       8.436245338104848E-003  0.000000000000000E+000
  0.333704536871437       4.880257324856324E-003  4.414033131522307E-005
  0.000000000000000E+000  4.924397656171547E-003   1.00021875853444     
  9.148998254068144E-002  8.292417891154495E-004  0.000000000000000E+000
   2.61932437995369     
  0.632000051176599       8.304733450058579E-003  0.000000000000000E+000
  0.336613621625247       4.874733519145706E-003  5.474407285568113E-005
  0.000000000000000E+000  4.929477592001388E-003   1.00021926624232     
  9.137847201036248E-002  1.028239815870217E-003  0.000000000000000E+000
   2.61764462446904     
  0.618846621299056       8.142643113908310E-003  0.000000000000000E+000
  0.339519652248100       4.869073124401367E-003  6.528165838742618E-005
  0.000000000000000E+000  4.934354782788793E-003   1.00021977549525     
  9.126333200181605E-002  1.225499494651044E-003  0.000000000000000E+000
   2.61590234984005     
  0.605525942452643       7.949576021555563E-003  0.000000000000000E+000
  0.342546966274540       4.864102535547919E-003  7.571555244363132E-005
  0.000000000000000E+000  4.939818087991550E-003   1.00022030222631     
  9.116002738081852E-002  1.420633637170350E-003  0.000000000000000E+000
   2.61431870665847     
  0.592054310759683       7.725396929789890E-003  0.000000000000000E+000
  0.345763398410782       4.860102711650341E-003  8.612181543922152E-005
  0.000000000000000E+000  4.946224527089562E-003   1.00022085127275     
  9.107373830744248E-002  1.614816144868468E-003  0.000000000000000E+000
   2.61296714589531     
  0.578448841139469       7.469587338919363E-003  0.000000000000000E+000
  0.347929311734333       4.858631656023761E-003  9.697509740901082E-005
  0.000000000000000E+000  4.955606753432771E-003   1.00022120510971     
  9.103331159596917E-002  1.816924001591068E-003  0.000000000000000E+000
   2.61225851740642     
  0.564727426131715       7.179798545920949E-003  0.000000000000000E+000
  0.350241043627875       4.860708079336390E-003  1.074384502628673E-004
  0.000000000000000E+000  4.968146529599257E-003   1.00022155965409     
  9.105792471424895E-002  2.011890865505873E-003  0.000000000000000E+000
   2.61246646567506     
  0.550908452145140       6.860707846468249E-003  0.000000000000000E+000
  0.353469928433697       4.864605860587187E-003  1.169354797845075E-004
  0.000000000000000E+000  4.981541340371694E-003   1.00022204963167     
  9.111489564471129E-002  2.189052051796645E-003  0.000000000000000E+000
   2.61311348589791     
  0.537010910895377       6.513416561857800E-003  0.000000000000000E+000
  0.356335388486741       4.869325858112046E-003  1.260868367383215E-004
  0.000000000000000E+000  4.995412694850368E-003   1.00022243131405     
  9.118517940734802E-002  2.359683836584340E-003  0.000000000000000E+000
   2.61392350119052     
  0.523054228165777       6.139328491792367E-003  0.000000000000000E+000
  0.359283489124209       4.875466027599962E-003  1.348545846823932E-004
  0.000000000000000E+000  5.010320612282355E-003   1.00022277193075     
  9.128061718532055E-002  2.522804882145068E-003  0.000000000000000E+000
   2.61507436714574     
  0.509058155752480       5.740143054580419E-003  0.000000000000000E+000
  0.362352934909040       4.883655533058955E-003  1.432051205807689E-004
  0.000000000000000E+000  5.026860653639724E-003   1.00022307748098     
  9.141327695150722E-002  2.677799336000163E-003  0.000000000000000E+000
   2.61674153272548     
  0.495042659692362       5.317842972884984E-003  0.000000000000000E+000
  0.365584340971282       4.894521488051948E-003  1.511090528052770E-004
  0.000000000000000E+000  5.045630540857224E-003   1.00022334277619     
  9.159492680519457E-002  2.824125255642919E-003  0.000000000000000E+000
   2.61909172008053     
  0.481027806142041       4.874676585191666E-003  0.000000000000000E+000
  0.369042846841012       4.908649087503058E-003  1.585390763264781E-004
  0.000000000000000E+000  5.067188163829536E-003   1.00022357608127     
  9.183654647290693E-002  2.961284856396786E-003  0.000000000000000E+000
   2.62227928595088     
  0.467033646316841       4.413134998349662E-003  0.000000000000000E+000
  0.372924266993550       4.926306910737197E-003  1.654906754070808E-004
  0.000000000000000E+000  5.091797586144278E-003   1.00022379352719     
  9.214259387131707E-002  3.089318237888463E-003  0.000000000000000E+000
   2.62635614337785     
  0.453080108148714       3.935745123473622E-003  0.000000000000000E+000
  0.376802434926958       4.945985847735915E-003  1.720952641993497E-004
  0.000000000000000E+000  5.118081111935265E-003   1.00022395099747     
  9.248351330015386E-002  3.211763151025100E-003  0.000000000000000E+000
   2.63088070524520     
  0.439186917314490       3.444124449314979E-003  0.000000000000000E+000
  0.381581650909311       4.963348376667219E-003  1.777244835178149E-004
  0.000000000000000E+000  5.141072860185034E-003   1.00022421580710     
  9.277874463517571E-002  3.317974072210665E-003  0.000000000000000E+000
   2.63471133623569     
  0.425373323286012       2.943537917647252E-003  0.000000000000000E+000
  0.388788199174314       4.973722999803776E-003  1.819013162735910E-004
  0.000000000000000E+000  5.155624316077367E-003   1.00022493445999     
  9.294239590236678E-002  3.397930915515853E-003  0.000000000000000E+000
   2.63664903427367     
  0.411658191042757       2.437221773305309E-003  0.000000000000000E+000
  0.397982205676726       4.974171478624272E-003  1.870767976607607E-004
  0.000000000000000E+000  5.161248276285032E-003   1.00022608668911     
  9.291656117325753E-002  3.497058619545666E-003  0.000000000000000E+000
   2.63585795914470     
  0.398060300010423       1.916233981970908E-003  0.000000000000000E+000
  0.407611939382832       4.957921722067640E-003  1.986835893247822E-004
  0.000000000000000E+000  5.156605311392422E-003   1.00022732711813     
  9.256503170988817E-002  3.719011713730731E-003  0.000000000000000E+000
   2.63032572191435     
  0.384598635456386       1.352902573853140E-003  0.000000000000000E+000
  0.414318124383954       4.918173405222208E-003  2.183216343979425E-004
  0.000000000000000E+000  5.136495039620151E-003   1.00022804490503     
  9.175457213040400E-002  4.091371603617919E-003  0.000000000000000E+000
   2.61806565375079     
  0.371291267288200       7.281164213263902E-004  0.000000000000000E+000
  0.416978543380765       4.859204979438709E-003  2.409637251022324E-004
  0.000000000000000E+000  5.100168704540941E-003   1.00022805195295     
  9.057125003480344E-002  4.514962506038528E-003  0.000000000000000E+000
   2.60026458346863     
  0.358154780898738       4.178473641569574E-005  0.000000000000000E+000
  0.420709930112253       4.795021083741688E-003  2.624774955541393E-004
  0.000000000000000E+000  5.057498579295827E-003   1.00022848654029     
  8.928499763249825E-002  4.910195101423246E-003  0.000000000000000E+000
   2.58078640049141     
  0.345204555188213      -6.996594131643285E-004  0.000000000000000E+000
  0.423486699361774       4.742414499234436E-003  2.842148425300192E-004
  0.000000000000000E+000  5.026629341764456E-003   1.00022914384958     
  8.820713773884829E-002  5.303084051790420E-003  0.000000000000000E+000
   2.56410819428381     
  0.332455505085775      -1.498146808410845E-003  0.000000000000000E+000
  0.423330813558778       4.708785554927769E-003  3.054531832397730E-004
  0.000000000000000E+000  5.014238738167542E-003   1.00022945443299     
  8.747586621892094E-002  5.685460708731814E-003  0.000000000000000E+000
   2.55229766588783     
  0.319920537181743      -2.339667901782980E-003  0.000000000000000E+000
  0.424064510421204       4.689555158712631E-003  3.240723842634076E-004
  0.000000000000000E+000  5.013627542976039E-003   1.00023009215163     
  8.701011058691696E-002  6.020452244879013E-003  0.000000000000000E+000
   2.54426188986242     
  0.307611656831778      -3.214917519367286E-003  0.000000000000000E+000
  0.425124418187352       4.678935335725552E-003  3.411487495781395E-004
  0.000000000000000E+000  5.020084085303691E-003   1.00023100458766     
  8.670035770412758E-002  6.326783378945610E-003  0.000000000000000E+000
   2.53841690024872     
  0.295539909591286      -4.117285986877651E-003  0.000000000000000E+000
  0.425948779651890       4.674243764189345E-003  3.570531196508612E-004
  0.000000000000000E+000  5.031296883840206E-003   1.00023188753695     
  8.649440789142886E-002  6.610796428874424E-003  0.000000000000000E+000
   2.53398108589448     
  0.283715218424319      -5.040365564571752E-003  0.000000000000000E+000
  0.427868895513257       4.673244872323367E-003  3.716855581969976E-004
  0.000000000000000E+000  5.044930430520365E-003   1.00023308674074     
  8.634997145419726E-002  6.870865912663894E-003  0.000000000000000E+000
   2.53032729628012     
  0.272146384621058      -5.978022424434283E-003  0.000000000000000E+000
  0.429231064680835       4.675454153822314E-003  3.859455728842627E-004
  0.000000000000000E+000  5.061399726706577E-003   1.00023487264541     
  8.625580132453416E-002  7.121911813251672E-003  0.000000000000000E+000
   2.52727300041024     
  0.260841459952367      -6.928699530984975E-003  0.000000000000000E+000
  0.428745559136814       4.683230511335431E-003  3.994106999608833E-004
  0.000000000000000E+000  5.082641211296314E-003   1.00023657954095     
  8.625614167014659E-002  7.355622843052353E-003  0.000000000000000E+000
   2.52546336675634     
  0.249806769810523      -7.883567295849768E-003  0.000000000000000E+000