 variables = "X","Y","Z","Cp","Cfx","Cfy","Cfz","Cf","T","u","v","w","yplus"
 zone i=         151
   1.00000000000000       1.665324653670056E-017  0.000000000000000E+000
  0.144804415650697       8.549665912667729E-003 -2.340097060984458E-004
  0.000000000000000E+000  8.783675618766175E-003   1.00019030873542     
  0.161664204363386      -2.974750740191951E-002  0.000000000000000E+000
   3.53335658139929     
  0.999001425599671       5.447267690042997E-005  0.000000000000000E+000
  0.135709419606656       8.049056026929667E-003 -4.384378209599797E-004
  0.000000000000000E+000  8.487493847889648E-003   1.00020073605719     
  0.150815156408725      -5.851819455548013E-003  0.000000000000000E+000
   3.36167679815891     
  0.997949997818270       1.116616879644300E-004  0.000000000000000E+000
  0.146195326746920       7.575727817403529E-003 -4.113662474489592E-004
  0.000000000000000E+000  7.987094064852488E-003   1.00020082374739     
  0.141930147826018      -5.804618310006072E-003  0.000000000000000E+000
   3.26131454208961     
  0.996843037128316       1.716701774105140E-004  0.000000000000000E+000
  0.153775690036809       7.176862495384883E-003 -3.886035701259665E-004
  0.000000000000000E+000  7.565466065510850E-003   1.00020072108930     
  0.134442432808962      -5.776207403024409E-003  0.000000000000000E+000
   3.17428265287867     
  0.995677746198344       2.346938777538863E-004  0.000000000000000E+000
  0.161128730280097       6.844730339028557E-003 -3.695240457404547E-004
  0.000000000000000E+000  7.214254384769012E-003   1.00020070582119     
  0.128208604226529      -5.733122142074405E-003  0.000000000000000E+000
   3.09995915110788     
  0.994451193364049       3.007928008083059E-004  0.000000000000000E+000
  0.167804274127775       6.569125319261086E-003 -3.533829299401931E-004
  0.000000000000000E+000  6.922508249201278E-003   1.00020067548262     
  0.123036460431806      -5.684916741732866E-003  0.000000000000000E+000
   3.03691450642100     
  0.993160320569400       3.701124539357903E-004  0.000000000000000E+000
  0.173985060785753       6.342517426228340E-003 -3.400492366851424E-004
  0.000000000000000E+000  6.682566662913482E-003   1.00020068911712     
  0.118783971631026      -5.644135250527084E-003  0.000000000000000E+000
   2.98408562970634     
  0.991801936040528       4.428260084685768E-004  0.000000000000000E+000
  0.179698359361737       6.159646089866978E-003 -3.290013887422300E-004
  0.000000000000000E+000  6.488647478609208E-003   1.00020080105598     
  0.115352026897119      -5.616368989172086E-003  0.000000000000000E+000
   2.94076807497593     
  0.990372703239448       5.189985854962523E-004  0.000000000000000E+000
  0.183884379476922       6.018056888193572E-003 -3.201299006752235E-004
  0.000000000000000E+000  6.338186788868795E-003   1.00020092502321     
  0.112694387101197      -5.604454705143324E-003  0.000000000000000E+000
   2.90679204360513     
  0.988869149734546       5.988289370959963E-004  0.000000000000000E+000
  0.187059308165544       5.913825936808127E-003 -3.133543007005174E-004
  0.000000000000000E+000  6.227180237508644E-003   1.00020110153129     
  0.110737673096154      -5.603016224005377E-003  0.000000000000000E+000
   2.88153054740927     
  0.987287653567351       6.824581442352054E-004  0.000000000000000E+000
  0.189347041775591       5.841436786337374E-003 -3.080273580292995E-004
  0.000000000000000E+000  6.149464144366673E-003   1.00020118849055     
  0.109378924369612      -5.600233562264606E-003  0.000000000000000E+000
   2.86386661984106     
  0.985624436699843       7.699165229630898E-004  0.000000000000000E+000
  0.191641800493926       5.794345186702804E-003 -3.042892907615696E-004
  0.000000000000000E+000  6.098634477464374E-003   1.00020129759813     
  0.108495148057588      -5.597941304719111E-003  0.000000000000000E+000
   2.85232395783564     
  0.983875589210279       8.616377525778661E-004  0.000000000000000E+000
  0.192943638607858       5.765680725253291E-003 -3.010902849828400E-004
  0.000000000000000E+000  6.066771010236131E-003   1.00020118117308     
  0.107958053912522      -5.583500247258349E-003  0.000000000000000E+000
   2.84529182687476     
  0.982037001885699       9.572376115019621E-004  0.000000000000000E+000
  0.195360537271654       5.748234972644368E-003 -2.988524803564857E-004
  0.000000000000000E+000  6.047087453000854E-003   1.00020104037018     
  0.107632001613769      -5.560811274119264E-003  0.000000000000000E+000
   2.84101151536625     
  0.980104478202655       1.057699935824212E-003  0.000000000000000E+000
  0.198224946085929       5.735209663142397E-003 -2.962658771894278E-004
  0.000000000000000E+000  6.031475540331824E-003   1.00020096660950     
  0.107389953895840      -5.520002174395832E-003  0.000000000000000E+000
   2.83782823614035     
  0.978073553669464       1.161948348956863E-003  0.000000000000000E+000
  0.201162885035274       5.723850446469814E-003 -2.938059293814050E-004
  0.000000000000000E+000  6.017656375851219E-003   1.00020113192316     
  0.107179187666979      -5.477427499962899E-003  0.000000000000000E+000
   2.83505092143949     
  0.975939733923639       1.271478426898274E-003  0.000000000000000E+000
  0.204307268171533       5.712953233394572E-003 -2.915185368389821E-004
  0.000000000000000E+000  6.004471770233554E-003   1.00020143580012     
  0.106977102846470      -5.436099768220338E-003  0.000000000000000E+000
   2.83238548462815     
  0.973698227034776       1.385180156087390E-003  0.000000000000000E+000
  0.206933172618164       5.702574561353835E-003 -2.888628073495729E-004
  0.000000000000000E+000  5.991437368703408E-003   1.00020172236208     
  0.106784973946198      -5.389348340365743E-003  0.000000000000000E+000
   2.82984942221356     
  0.971344194597081       1.504258504303337E-003  0.000000000000000E+000
  0.209960070705847       5.691808682076080E-003 -2.864370409539052E-004
  0.000000000000000E+000  5.978245723029985E-003   1.00020214714294     
  0.106585645950592      -5.342056136178438E-003  0.000000000000000E+000
   2.82721323390435     
  0.968872537262536       1.628001624485897E-003  0.000000000000000E+000
  0.212251553305350       5.679961227403442E-003 -2.834920141592788E-004
  0.000000000000000E+000  5.963453241562721E-003   1.00020248917162     
  0.106366378207324      -5.287005786262898E-003  0.000000000000000E+000
   2.82431054666258     
  0.966278062333970       1.757096938973359E-003  0.000000000000000E+000
  0.214941611973018       5.667198184761514E-003 -2.807379905801272E-004
  0.000000000000000E+000  5.947936175341641E-003   1.00020294372509     
  0.106129809437805      -5.234467450322007E-003  0.000000000000000E+000
   2.82117479986634     
  0.963555373647426       1.891373763395130E-003  0.000000000000000E+000
  0.217325991920461       5.653069312391904E-003 -2.774660227174917E-004
  0.000000000000000E+000  5.930535335109396E-003   1.00020333617430     
  0.105868073956797      -5.172307006007623E-003  0.000000000000000E+000
   2.81770079732326     
  0.960698927782761       2.030904889090778E-003  0.000000000000000E+000
  0.219972066403216       5.637993614826943E-003 -2.743201532169153E-004
  0.000000000000000E+000  5.912313768043858E-003   1.00020379135347     
  0.105588333935284      -5.114622008881192E-003  0.000000000000000E+000
   2.81398423296688     
  0.957703044267799       2.176098169407578E-003  0.000000000000000E+000
  0.221808528232714       5.623965072697778E-003 -2.708413725646289E-004
  0.000000000000000E+000  5.894806445262408E-003   1.00020413975635     
  0.105328408502507      -5.054147174371303E-003  0.000000000000000E+000
   2.81052932809522     
  0.954561846157195       2.326415247496387E-003  0.000000000000000E+000
  0.224074643530912       5.611881720828668E-003 -2.675118216930131E-004
  0.000000000000000E+000  5.879393542521680E-003   1.00020453465262     
  0.105104932357651      -4.994478705388446E-003  0.000000000000000E+000
   2.80755596073024     
  0.951269384357213       2.482757904136671E-003  0.000000000000000E+000
  0.226203151137042       5.600917502579572E-003 -2.639639988011390E-004
  0.000000000000000E+000  5.864881501380711E-003   1.00020488751531     
  0.104902692508726      -4.930516560715351E-003  0.000000000000000E+000
   2.80486380154083     
  0.947819482538107       2.644120805717701E-003  0.000000000000000E+000
  0.228529110556565       5.590918391900375E-003 -2.603529246037662E-004
  0.000000000000000E+000  5.851271316504141E-003   1.00020526706064     
  0.104718630609037      -4.864433066468716E-003  0.000000000000000E+000
   2.80241171214164     
  0.944205942257812       2.811651156899837E-003  0.000000000000000E+000
  0.231055074855931       5.581483615115687E-003 -2.566556663557344E-004
  0.000000000000000E+000  5.838139281471421E-003   1.00020568016430     
  0.104545252632669      -4.796658296116045E-003  0.000000000000000E+000
   2.80010121934851     
  0.940422342196095       2.984205242399509E-003  0.000000000000000E+000
  0.233454954944591       5.572944669876259E-003 -2.526858506066045E-004
  0.000000000000000E+000  5.825630520482863E-003   1.00020605799388     
  0.104388878604997      -4.723981715042753E-003  0.000000000000000E+000
   2.79801677496393     
  0.936462258150449       3.162718150678633E-003  0.000000000000000E+000
  0.236571102202106       5.563696405427870E-003 -2.487733496885632E-004
  0.000000000000000E+000  5.812469755116434E-003   1.00020653557585     
  0.104219293537503      -4.648781658413951E-003  0.000000000000000E+000
   2.79575230554099     
  0.932319101600151       3.346467535361265E-003  0.000000000000000E+000
  0.239080353065901       5.552082064337785E-003 -2.442037033703820E-004
  0.000000000000000E+000  5.796285767708167E-003   1.00020688290703     
  0.104005799583219      -4.561710637627475E-003  0.000000000000000E+000
   2.79289675330858     
  0.927986251584928       3.535462227755561E-003  0.000000000000000E+000
  0.242552193963775       5.536560471252225E-003 -2.397978168867910E-004
  0.000000000000000E+000  5.776358288139016E-003   1.00020740015700     
  0.103718912864000      -4.474847135452743E-003  0.000000000000000E+000
   2.78905072211544     
  0.923457056336885       3.730240913818279E-003  0.000000000000000E+000
  0.244650765366259       5.517480271068947E-003 -2.344280887313723E-004
  0.000000000000000E+000  5.751908359800319E-003   1.00020767089939     
  0.103365871008292      -4.372917710826760E-003  0.000000000000000E+000
   2.78431010924189     
  0.918724734063985       3.928866629792209E-003  0.000000000000000E+000
  0.248329381221765       5.497213689707902E-003 -2.296230818237702E-004
  0.000000000000000E+000  5.726836771531672E-003   1.00020819669954     
  0.102989978792032      -4.282713558762934E-003  0.000000000000000E+000
   2.77925445664370     
  0.913782702004972       4.134308086652536E-003  0.000000000000000E+000
  0.251181126689062       5.477299564799331E-003 -2.237381481136128E-004
  0.000000000000000E+000  5.701037712912944E-003   1.00020858377392     
  0.102621402054703      -4.175325343011163E-003  0.000000000000000E+000
   2.77429039048179     
  0.908624062312831       4.341309162270438E-003  0.000000000000000E+000
  0.253897135842863       5.459738983130658E-003 -2.178506944021255E-004
  0.000000000000000E+000  5.677589677532784E-003   1.00020893396088     
  0.102296889971532      -4.067828594167329E-003  0.000000000000000E+000
   2.76991357610041     
  0.903242385263693       4.554834075679027E-003  0.000000000000000E+000
  0.258290567930089       5.441208123687455E-003 -2.124922608997724E-004
  0.000000000000000E+000  5.653700384587227E-003   1.00020958369468     
  0.101953939914673      -3.964763916436083E-003  0.000000000000000E+000
   2.76527826518228     
  0.897630946103148       4.770477692087010E-003  0.000000000000000E+000
  0.260741727708364       5.420308737506385E-003 -2.057245460225184E-004
  0.000000000000000E+000  5.626033283528903E-003   1.00020989764618     
  0.101567359664830      -3.838133502007580E-003  0.000000000000000E+000
   2.76004277340574     
  0.891783373400719       4.989646083122509E-003  0.000000000000000E+000
  0.265797202232307       5.399505165780144E-003 -2.003297053817547E-004
  0.000000000000000E+000  5.599834871161898E-003   1.00021069328809     
  0.101181410179359      -3.739587400780856E-003  0.000000000000000E+000
   2.75480853204734     
  0.885693421287334       5.213290243712273E-003  0.000000000000000E+000
  0.268663261178972       5.383630064043580E-003 -1.932372713782586E-004
  0.000000000000000E+000  5.576867335421839E-003   1.00021111938343     
  0.100888855865210      -3.613845037348850E-003  0.000000000000000E+000
   2.75083883435935     
  0.879354799790459       5.435549238576376E-003  0.000000000000000E+000
  0.271511516201599       5.375465776352817E-003 -1.863934443769405E-004
  0.000000000000000E+000  5.561859220729757E-003   1.00021148957571     
  0.100740819817497      -3.488929031954096E-003  0.000000000000000E+000
   2.74883377157841     
  0.872761850024891       5.661595916410732E-003  0.000000000000000E+000
  0.277027558234522       5.364024049840686E-003 -1.805803647001842E-004
  0.000000000000000E+000  5.544604414540870E-003   1.00021231668004     
  0.100530799697035      -3.374162915231231E-003  0.000000000000000E+000
   2.74597809541924     
  0.865908887614107       5.888050303986711E-003  0.000000000000000E+000
  0.279519472924221       5.345228962977347E-003 -1.724542871768318E-004
  0.000000000000000E+000  5.517683250154178E-003   1.00021261402055     
  0.100183965725760      -3.219722989506506E-003  0.000000000000000E+000
   2.74124806331018     
  0.858790596690845       6.112150921137999E-003  0.000000000000000E+000
  0.282770108409750       5.326559275187119E-003 -1.650497475955696E-004
  0.000000000000000E+000  5.491609022782688E-003   1.00021303056103     
  9.983875424180905E-002 -3.082199416721168E-003  0.000000000000000E+000
   2.73653402653065     
  0.851402232938537       6.337426796155764E-003  0.000000000000000E+000
  0.288049363237633       5.305180498515799E-003 -1.578560477867067E-004
  0.000000000000000E+000  5.463036546302505E-003   1.00021380102239     
  9.944250691907255E-002 -2.944837418065886E-003  0.000000000000000E+000
   2.73111015590995     
  0.843739242234269       6.559807874772471E-003  0.000000000000000E+000
  0.291031997147684       5.280914658880936E-003 -1.486894397350816E-004
  0.000000000000000E+000  5.429604098616017E-003   1.00021416253497     
  9.899281755494657E-002 -2.774204716121750E-003  0.000000000000000E+000
   2.72493940033759     
  0.835797614343686       6.776554441764220E-003  0.000000000000000E+000
  0.294335598457337       5.260317589998002E-003 -1.403471470515758E-004
  0.000000000000000E+000  5.400664737049578E-003   1.00021457520395     
  9.861124327791446E-002 -2.620340953798584E-003  0.000000000000000E+000
   2.71969455325885     
  0.827574033874230       6.990933322577417E-003  0.000000000000000E+000
  0.300205525098590       5.239768899388936E-003 -1.329264706311472E-004
  0.000000000000000E+000  5.372695370020083E-003   1.00021547605562     
  9.822994224793058E-002 -2.481012605521818E-003  0.000000000000000E+000
   2.71444298258368     
  0.819065622350018       7.200829533666883E-003  0.000000000000000E+000
  0.303464671800384       5.221056907319955E-003 -1.231012675627409E-004
  0.000000000000000E+000  5.344158174882696E-003   1.00021592888352     
  9.788374787252652E-002 -2.300808763877280E-003  0.000000000000000E+000
   2.70966499444746     
  0.810270040767068       7.398615321999188E-003  0.000000000000000E+000
  0.306340467230484       5.210372782721912E-003 -1.133614791591901E-004
  0.000000000000000E+000  5.323734261881102E-003   1.00021626469775     
  9.768778480443130E-002 -2.121379922201274E-003  0.000000000000000E+000
   2.70695977725940     
  0.801185958372473       7.589628713596443E-003  0.000000000000000E+000
  0.311694753302845       5.199349058547072E-003 -1.053525886093389E-004
  0.000000000000000E+000  5.304701647156411E-003   1.00021702517594     
  9.748454840445892E-002 -1.968454271405231E-003  0.000000000000000E+000
   2.70414988154161     
  0.791812627973472       7.772394067772765E-003  0.000000000000000E+000
  0.316418886723341       5.179830422037452E-003 -9.607218657608325E-005
  0.000000000000000E+000  5.275902608613535E-003   1.00021767718174     
  9.712205567854090E-002 -1.790877426238884E-003  0.000000000000000E+000
   2.69912244275355     
  0.782150065254686       7.942422822669317E-003  0.000000000000000E+000
  0.319352356854779       5.157222255605204E-003 -8.509820821626741E-005
  0.000000000000000E+000  5.242320463821472E-003   1.00021800307464     
  9.670156557129791E-002 -1.586151453536079E-003  0.000000000000000E+000
   2.69327551136474     
  0.772199185767239       8.095718475719276E-003  0.000000000000000E+000
  0.322560047328125       5.138626531093589E-003 -7.466262067153905E-005
  0.000000000000000E+000  5.213289151765128E-003   1.00021839355326     
  9.635566817306071E-002 -1.392657029986250E-003  0.000000000000000E+000
   2.68845565453273     
  0.761961923922881       8.235501917519613E-003  0.000000000000000E+000
  0.327326057279834       5.120585595152997E-003 -6.526470137599158E-005
  0.000000000000000E+000  5.185850296528989E-003   1.00021907923235     
  9.601947295434871E-002 -1.215314306002874E-003  0.000000000000000E+000
   2.68376109226896     
  0.751441078648974       8.360036325710233E-003  0.000000000000000E+000
  0.332575573873555       5.098888877664366E-003 -5.555290011533222E-005
  0.000000000000000E+000  5.154441777779698E-003   1.00021990280231     
  9.561426251331671E-002 -1.032685962133436E-003  0.000000000000000E+000
   2.67808951357961     
  0.740640446574066       8.467539394565621E-003  0.000000000000000E+000
  0.336072904850653       5.079385606128240E-003 -4.400973510940600E-005
  0.000000000000000E+000  5.123395341237646E-003   1.00022046717986     
  9.524974097887201E-002 -8.190312101599909E-004  0.000000000000000E+000
   2.67297079338946     
  0.729564815658738       8.549226778783900E-003  0.000000000000000E+000
  0.338929870476477       5.066667741124303E-003 -3.221442688134696E-005
  0.000000000000000E+000  5.098882168005650E-003   1.00022094611694     
  9.501183203835983E-002 -5.999865906442308E-004  0.000000000000000E+000
   2.66961807579596     
  0.718220157151689       8.609815858319162E-003  0.000000000000000E+000
  0.343327455303324       5.055375262951955E-003 -2.183244926134097E-005
  0.000000000000000E+000  5.077207712213296E-003   1.00022171746720     
  9.479971545056742E-002 -4.045706996470088E-004  0.000000000000000E+000
   2.66661969601371     
  0.706613454876314       8.648074977020741E-003  0.000000000000000E+000
  0.347399835335182       5.041125712755177E-003 -1.134868654318360E-005
  0.000000000000000E+000  5.052474399298361E-003   1.00022242690279     
  9.453094408425480E-002 -2.069529664030800E-004  0.000000000000000E+000
   2.66280855235987     
  0.694752788406665       8.662372544331720E-003  0.000000000000000E+000
  0.351778916515968       5.025593283646675E-003 -7.036220976161558E-007
  0.000000000000000E+000  5.026296905744291E-003   1.00022319438670     
  9.423677298553720E-002 -7.394565692426689E-006  0.000000000000000E+000
   2.65862074594490     
  0.682647343539202       8.651157664054129E-003  0.000000000000000E+000
  0.356251478312743       5.011872098204182E-003  1.061276698524134E-005
  0.000000000000000E+000  5.022484865189423E-003   1.00022398884194     
  9.397538389492872E-002  2.030250182648022E-004  0.000000000000000E+000
   2.65487903849534     
  0.670307422204054       8.610315629881678E-003  0.000000000000000E+000
  0.359371128770135       5.003580402827079E-003  2.271391923433080E-005
  0.000000000000000E+000  5.026294322061409E-003   1.00022455728850     
  9.381467661840952E-002  4.274854945731548E-004  0.000000000000000E+000
   2.65254653842011     
  0.657744432187388       8.537819516044324E-003  0.000000000000000E+000
  0.362491669334304       5.000761380583246E-003  3.430778926594505E-005
  0.000000000000000E+000  5.035069169849191E-003   1.00022513892260     
  9.375564499997985E-002  6.437648209146407E-004  0.000000000000000E+000
   2.65164380340518     
  0.644970813927204       8.436245338104848E-003  0.000000000000000E+000
  0.366522431532076       4.998913357547043E-003  4.521353626647657E-005
  0.000000000000000E+000  5.044126893813519E-003   1.00022589277186     
  9.371391094464573E-002  8.485279862406490E-004  0.000000000000000E+000
   2.65097884818892     
  0.632000051176599       8.304733450058579E-003  0.000000000000000E+000
  0.370362158140097       4.995840017582588E-003  5.610411903690383E-005
  0.000000000000000E+000  5.051944136619492E-003   1.00022661799098     
  9.364812786271828E-002  1.052919372894159E-003  0.000000000000000E+000
   2.64996444727620     
  0.618846621299056       8.142643113908310E-003  0.000000000000000E+000
  0.374219228652464       4.992528266266037E-003  6.693687201012735E-005
  0.000000000000000E+000  5.059465138276164E-003   1.00022734996190     
  9.357676961638794E-002  1.255806455941890E-003  0.000000000000000E+000
   2.64886114306925     
  0.605525942452643       7.949576021555563E-003  0.000000000000000E+000
  0.378210805050003       4.989572924671934E-003  7.766864853462478E-005
  0.000000000000000E+000  5.067241573206559E-003   1.00022810596577     
  9.351095911558560E-002  1.456670063927305E-003  0.000000000000000E+000
   2.64782579457913     
  0.592054310759683       7.725396929789890E-003  0.000000000000000E+000
  0.382439450546826       4.987053290193653E-003  8.837140044587211E-005
  0.000000000000000E+000  5.075424690639525E-003   1.00022890429114     
  9.345209400504711E-002  1.656641784850496E-003  0.000000000000000E+000
   2.64687713151632     
  0.578448841139469       7.469587338919363E-003  0.000000000000000E+000
  0.385695474451268       4.986591246319026E-003  9.952908678944576E-005
  0.000000000000000E+000  5.086120333108472E-003   1.00022952763635     
  9.343021560619112E-002  1.864532507377889E-003  0.000000000000000E+000
   2.64643726250042     
  0.564727426131715       7.179798545920949E-003  0.000000000000000E+000
  0.389117209958158       4.989844791318785E-003  1.102928179543611E-004
  0.000000000000000E+000  5.100137609273146E-003   1.00023016023488     
  9.347648845140616E-002  2.064899115026320E-003  0.000000000000000E+000
   2.64694564146296     
  0.550908452145140       6.860707846468249E-003  0.000000000000000E+000
  0.393476514532949       4.995668788418415E-003  1.200859726759569E-004
  0.000000000000000E+000  5.115754761094372E-003   1.00023094103614     
  9.356909739219600E-002  2.247311127342825E-003  0.000000000000000E+000
   2.64808427943189     
  0.537010910895377       6.513416561857800E-003  0.000000000000000E+000
  0.397506188270199       5.003154235882090E-003  1.295522028083986E-004
  0.000000000000000E+000  5.132706438690488E-003   1.00023163744195     
  9.369066473620230E-002  2.423556234113817E-003  0.000000000000000E+000
   2.64960373398182     
  0.523054228165777       6.139328491792367E-003  0.000000000000000E+000
  0.401644927114603       5.012862640750139E-003  1.386549522511091E-004
  0.000000000000000E+000  5.151517593001248E-003   1.00023231048233     
  9.385235480061122E-002  2.592685644528971E-003  0.000000000000000E+000
   2.65166944758469     
  0.509058155752480       5.740143054580419E-003  0.000000000000000E+000
  0.405868418547016       5.025349619517143E-003  1.473600652448591E-004
  0.000000000000000E+000  5.172709684762002E-003   1.00023294672008     
  9.406485671692351E-002  2.754059040314119E-003  0.000000000000000E+000
   2.65443403411924     
  0.495042659692362       5.317842972884984E-003  0.000000000000000E+000
  0.410212178283246       5.041290801516852E-003  1.556402764916013E-004
  0.000000000000000E+000  5.196931078008453E-003   1.00023354766300     
  9.434083645318937E-002  2.907142003824366E-003  0.000000000000000E+000
   2.65807303346338     
  0.481027806142041       4.874676585191666E-003  0.000000000000000E+000
  0.414781260132486       5.061306228774266E-003  1.634695819531724E-004
  0.000000000000000E+000  5.224775810727438E-003   1.00023411392224     
  9.469191398595958E-002  3.051485658656141E-003  0.000000000000000E+000
   2.66274558122409     
  0.467033646316841       4.413134998349662E-003  0.000000000000000E+000
  0.419781296596057       5.084857619477466E-003  1.708169094793277E-004
  0.000000000000000E+000  5.255674528956793E-003   1.00023466215004     
  9.510740716556278E-002  3.187140674494537E-003  0.000000000000000E+000
   2.66828777926323     
  0.453080108148714       3.935745123473622E-003  0.000000000000000E+000
  0.424791847303368       5.109158250448700E-003  1.777728375953982E-004
  0.000000000000000E+000  5.286931088044098E-003   1.00023516019932     
  9.553382769101440E-002  3.316717379524037E-003  0.000000000000000E+000
   2.67392824091737     
  0.439186917314490       3.444124449314979E-003  0.000000000000000E+000
  0.430604815277320       5.129719360766716E-003  1.836817919601988E-004
  0.000000000000000E+000  5.313401152726914E-003   1.00023576021798     
  9.588784573585565E-002  3.428443142423615E-003  0.000000000000000E+000
   2.67850689402709     
  0.425373323286012       2.943537917647252E-003  0.000000000000000E+000
  0.438791216924074       5.142302524764659E-003  1.880666852485432E-004
  0.000000000000000E+000  5.330369210013203E-003   1.00023680279632     
  9.609171973008479E-002  3.512603796223199E-003  0.000000000000000E+000
   2.68096162763371     
  0.411658191042757       2.437221773305309E-003  0.000000000000000E+000
  0.448973181844622       5.144594537979720E-003  1.934863475202168E-004
  0.000000000000000E+000  5.338080885499937E-003   1.00023827954207     
  9.609914711797196E-002  3.616144994727532E-003  0.000000000000000E+000
   2.68063335697559     
  0.398060300010423       1.916233981970908E-003  0.000000000000000E+000
  0.459432250426516       5.131902266593353E-003  2.056556795349180E-004
  0.000000000000000E+000  5.337557946128271E-003   1.00023984841163     
  9.581241452799191E-002  3.847595543202794E-003  0.000000000000000E+000
   2.67607963501730     
  0.384598635456386       1.352902573853140E-003  0.000000000000000E+000
  0.466966634915707       5.099223273872305E-003  2.263585810699375E-004
  0.000000000000000E+000  5.325581854942242E-003   1.00024094411620     
  9.513147874517763E-002  4.238525679399405E-003  0.000000000000000E+000
   2.66581911116679     
  0.371291267288200       7.281164213263902E-004  0.000000000000000E+000
  0.470658438905502       5.054255659563450E-003  2.506361151003396E-004
  0.000000000000000E+000  5.304891774663790E-003   1.00024141692986     
  9.420619201219851E-002  4.689110275829132E-003  0.000000000000000E+000
   2.65193858871524     
  0.358154780898738       4.178473641569574E-005  0.000000000000000E+000
  0.475544547836080       5.012433805182845E-003  2.743785759695802E-004
  0.000000000000000E+000  5.286812381152426E-003   1.00024226621793     
  9.333281538648318E-002  5.123378945936525E-003  0.000000000000000E+000
   2.63864510583527     
  0.345204555188213      -6.996594131643285E-004  0.000000000000000E+000
  0.479800220664174       4.983855097187509E-003  2.986844732685290E-004
  0.000000000000000E+000  5.282539570456038E-003   1.00024321304422     
  9.269731682333665E-002  5.564882164300860E-003  0.000000000000000E+000
   2.62856786743364     
  0.332455505085775      -1.498146808410845E-003  0.000000000000000E+000
  0.481379196800162       4.970962291753789E-003  3.224602669459544E-004
  0.000000000000000E+000  5.293422558699743E-003   1.00024390869690     
  9.234577294877480E-002  5.995106181326615E-003  0.000000000000000E+000
   2.62238846563627     
  0.319920537181743      -2.339667901782980E-003  0.000000000000000E+000
  0.483863610074650       4.969118016071510E-003  3.433916145582645E-004
  0.000000000000000E+000  5.312509630629775E-003   1.00024499659622     
  9.219645207819678E-002  6.373591963126402E-003  0.000000000000000E+000
   2.61900036728170     
  0.307611656831778      -3.214917519367286E-003  0.000000000000000E+000
  0.486760389470874       4.972617448328020E-003  3.625615870129372E-004
  0.000000000000000E+000  5.335179035340957E-003   1.00024626983523     
  9.214150593505574E-002  6.719280229309977E-003  0.000000000000000E+000
   2.61686862611358     
  0.295539909591286      -4.117285986877651E-003  0.000000000000000E+000
  0.489575376352832       4.979385248391754E-003  3.803620700955753E-004
  0.000000000000000E+000  5.359747318487330E-003   1.00024760949096     
  9.214005368530459E-002  7.038488995819161E-003  0.000000000000000E+000
   2.61538446871350     
  0.283715218424319      -5.040365564571752E-003  0.000000000000000E+000
  0.493369952736657       4.987770491969265E-003  3.967012875105589E-004
  0.000000000000000E+000  5.384471779479824E-003   1.00024919623946     
  9.216072223084046E-002  7.330056598784289E-003  0.000000000000000E+000
   2.61409092729448     
  0.272146384621058      -5.978022424434283E-003  0.000000000000000E+000
  0.496772045522448       4.997286523403869E-003  4.125119283458653E-004
  0.000000000000000E+000  5.409798451749734E-003   1.00025096810633     
  9.219219885496949E-002  7.609890445494471E-003  0.000000000000000E+000
   2.61280919699145     
  0.260841459952367      -6.928699530984975E-003  0.000000000000000E+000
  0.499032120667152       5.010931334871194E-003  4.273587615159805E-004
  0.000000000000000E+000  5.438290096387174E-003   1.00025275546302     
  9.229076336418918E-002  7.868354822268747E-003  0.000000000000000E+000
   2.61233083787261     
  0.249806769810523      -7.883567295849768E-003  0.000000000000000E+000