 variables = "X","Y","Z","Cp","Cfx","Cfy","Cfz","Cf","T","u","v","w","yplus"
 zone i=         151
   1.00000000000000       1.665324653670056E-017  0.000000000000000E+000
  0.116819458876762       8.841296801750876E-003 -2.419421434796664E-004
  0.000000000000000E+000  9.083238945230542E-003   1.00018761473401     
  0.167213544115579      -2.949217836110975E-002  0.000000000000000E+000
   3.59107253532711     
  0.999001425599671       5.447267690042997E-005  0.000000000000000E+000
  0.105199051850150       8.399256998058000E-003 -4.575135176460381E-004
  0.000000000000000E+000  8.856770515704038E-003   1.00019804619226     
  0.157363086156192      -6.365552925305257E-003  0.000000000000000E+000
   3.43396555748032     
  0.997949997818270       1.116616879644300E-004  0.000000000000000E+000
  0.115281485457444       7.956583627645087E-003 -4.320469305407639E-004
  0.000000000000000E+000  8.388630558185851E-003   1.00019785515171     
  0.149054292333117      -6.307806190863240E-003  0.000000000000000E+000
   3.34223772730296     
  0.996843037128316       1.716701774105140E-004  0.000000000000000E+000
  0.124752057589149       7.578499259373441E-003 -4.103508839002420E-004
  0.000000000000000E+000  7.988850143273683E-003   1.00019772268055     
  0.141958604114720      -6.245813982243616E-003  0.000000000000000E+000
   3.26185910862600     
  0.995677746198344       2.346938777538863E-004  0.000000000000000E+000
  0.134489134737578       7.256899825776067E-003 -3.917756946810758E-004
  0.000000000000000E+000  7.648675520457143E-003   1.00019776079990     
  0.135924171596158      -6.172609309055248E-003  0.000000000000000E+000
   3.19190540220568     
  0.994451193364049       3.007928008083059E-004  0.000000000000000E+000
  0.144131097985564       6.984539338826791E-003 -3.757299269059564E-004
  0.000000000000000E+000  7.360269265732747E-003   1.00019804297588     
  0.130813741830264      -6.109205855844843E-003  0.000000000000000E+000
   3.13144731963773     
  0.993160320569400       3.701124539357903E-004  0.000000000000000E+000
  0.152263936123290       6.759841595618764E-003 -3.624237539095569E-004
  0.000000000000000E+000  7.122265349528321E-003   1.00019854085361     
  0.126596683766527      -6.075800081385710E-003  0.000000000000000E+000
   3.08067810197424     
  0.991801936040528       4.428260084685768E-004  0.000000000000000E+000
  0.158172378999097       6.582042553181432E-003 -3.515625913280229E-004
  0.000000000000000E+000  6.933605144509455E-003   1.00019906150553     
  0.123259323964465      -6.059762767752901E-003  0.000000000000000E+000
   3.03991050751171     
  0.990372703239448       5.189985854962523E-004  0.000000000000000E+000
  0.162847132881097       6.446245979509281E-003 -3.429073741952999E-004
  0.000000000000000E+000  6.789153353704580E-003   1.00019951850620     
  0.120710520479871      -6.046186202522124E-003  0.000000000000000E+000
   3.00840917161893     
  0.988869149734546       5.988289370959963E-004  0.000000000000000E+000
  0.167295534148479       6.344810363088032E-003 -3.361907563278241E-004
  0.000000000000000E+000  6.681001119415856E-003   1.00019999441762     
  0.118806828519437      -6.034446830577554E-003  0.000000000000000E+000
   2.98466845847129     
  0.987287653567351       6.824581442352054E-004  0.000000000000000E+000
  0.170513781938325       6.271428129551814E-003 -3.307014196170907E-004
  0.000000000000000E+000  6.602129549168905E-003   1.00020026941416     
  0.117430227517773      -6.016700482889475E-003  0.000000000000000E+000
   2.96738634084035     
  0.985624436699843       7.699165229630898E-004  0.000000000000000E+000
  0.173741566907893       6.218425099699091E-003 -3.265597927366118E-004
  0.000000000000000E+000  6.544984892435703E-003   1.00020037122046     
  0.116436826072019      -5.988835231165383E-003  0.000000000000000E+000
   2.95484681879370     
  0.983875589210279       8.616377525778661E-004  0.000000000000000E+000
  0.177248104879936       6.176385381610474E-003 -3.225377405846793E-004
  0.000000000000000E+000  6.498923122195153E-003   1.00020027776619     
  0.115650476423655      -5.939022147120914E-003  0.000000000000000E+000
   2.94487674665054     
  0.982037001885699       9.572376115019621E-004  0.000000000000000E+000
  0.182279356813297       6.139023844503488E-003 -3.191697123774637E-004
  0.000000000000000E+000  6.458193556880951E-003   1.00020052376762     
  0.114951938765155      -5.888450709546288E-003  0.000000000000000E+000
   2.93598577229812     
  0.980104478202655       1.057699935824212E-003  0.000000000000000E+000
  0.186514757245959       6.105067789779649E-003 -3.153717769364500E-004
  0.000000000000000E+000  6.420439566716099E-003   1.00020080728997     
  0.114317766027272      -5.830999957975258E-003  0.000000000000000E+000
   2.92789316950416     
  0.978073553669464       1.161948348956863E-003  0.000000000000000E+000
  0.190389380604074       6.074860249059219E-003 -3.118233046144297E-004
  0.000000000000000E+000  6.386683553673648E-003   1.00020113464242     
  0.113753837782258      -5.774627066710933E-003  0.000000000000000E+000
   2.92067628666624     
  0.975939733923639       1.271478426898274E-003  0.000000000000000E+000
  0.194563190164445       6.047020818994801E-003 -3.085652181028512E-004
  0.000000000000000E+000  6.355586037097652E-003   1.00020162536047     
  0.113234297857784      -5.721131284692434E-003  0.000000000000000E+000
   2.91401204128546     
  0.973698227034776       1.385180156087390E-003  0.000000000000000E+000
  0.197906398636633       6.021729302736023E-003 -3.050295288088784E-004
  0.000000000000000E+000  6.326758831544902E-003   1.00020204172422     
  0.112762712908842      -5.664208233212509E-003  0.000000000000000E+000
   2.90795083156605     
  0.971344194597081       1.504258504303337E-003  0.000000000000000E+000
  0.201571932140268       5.998926905121740E-003 -3.018925911246226E-004
  0.000000000000000E+000  6.300819496246363E-003   1.00020255001739     
  0.112337695326132      -5.611551547287923E-003  0.000000000000000E+000
   2.90247737444686     
  0.968872537262536       1.628001624485897E-003  0.000000000000000E+000
  0.204533935321024       5.978168598809662E-003 -2.983758143968519E-004
  0.000000000000000E+000  6.276544413206514E-003   1.00020295098232     
  0.111951387763315      -5.551783733357346E-003  0.000000000000000E+000
   2.89749394161682     
  0.966278062333970       1.757096938973359E-003  0.000000000000000E+000
  0.207984881303901       5.958666977671739E-003 -2.951765827096489E-004
  0.000000000000000E+000  6.253843560381388E-003   1.00020346789001     
  0.111588555531157      -5.494680816481762E-003  0.000000000000000E+000
   2.89280470357110     
  0.963555373647426       1.891373763395130E-003  0.000000000000000E+000
  0.210962590646659       5.939807400770962E-003 -2.915398067939700E-004
  0.000000000000000E+000  6.231347207564932E-003   1.00020390638093     
  0.111238136445115      -5.430315115424822E-003  0.000000000000000E+000
   2.88826951769847     
  0.960698927782761       2.030904889090778E-003  0.000000000000000E+000
  0.214387840424934       5.921287406715122E-003 -2.881039922304226E-004
  0.000000000000000E+000  6.209391398945544E-003   1.00020440185011     
  0.110894028136915      -5.367069617393872E-003  0.000000000000000E+000
   2.88380798722144     
  0.957703044267799       2.176098169407578E-003  0.000000000000000E+000
  0.217439072241177       5.902706381388502E-003 -2.842651185245123E-004
  0.000000000000000E+000  6.186971499913014E-003   1.00020481741031     
  0.110549123092241      -5.297018320284824E-003  0.000000000000000E+000
   2.87932994680548     
  0.954561846157195       2.326415247496387E-003  0.000000000000000E+000
  0.220883494386953       5.883846456609082E-003 -2.804760617500383E-004
  0.000000000000000E+000  6.164322518359120E-003   1.00020529305868     
  0.110198985724873      -5.226224476593743E-003  0.000000000000000E+000
   2.87477579456631     
  0.951269384357213       2.482757904136671E-003  0.000000000000000E+000
  0.224130677887615       5.863995118845225E-003 -2.763625065568339E-004
  0.000000000000000E+000  6.140357625402059E-003   1.00020572285046     
  0.109830558657627      -5.149143409661220E-003  0.000000000000000E+000
   2.86997588762027     
  0.947819482538107       2.644120805717701E-003  0.000000000000000E+000
  0.227492954986928       5.843247700519577E-003 -2.721031718215114E-004
  0.000000000000000E+000  6.115350872341088E-003   1.00020616938491     
  0.109445391789847      -5.069432542198340E-003  0.000000000000000E+000
   2.86494886243212     
  0.944205942257812       2.811651156899837E-003  0.000000000000000E+000
  0.231053650564945       5.820996041097573E-003 -2.676692650334675E-004
  0.000000000000000E+000  6.088665306131040E-003   1.00020665188732     
  0.109032199931383      -4.985364449816008E-003  0.000000000000000E+000
   2.85954557615628     
  0.940422342196095       2.984205242399509E-003  0.000000000000000E+000
  0.234356965060670       5.797107605349757E-003 -2.628497415082457E-004
  0.000000000000000E+000  6.059957346858003E-003   1.00020710105217     
  0.108588544456295      -4.894687197041458E-003  0.000000000000000E+000
   2.85373197316432     
  0.936462258150449       3.162718150678633E-003  0.000000000000000E+000
  0.238143114632521       5.770769341228784E-003 -2.580323428744153E-004
  0.000000000000000E+000  6.028801684103200E-003   1.00020765280283     
  0.108098963690726      -4.802368698239771E-003  0.000000000000000E+000
   2.84730139631587     
  0.932319101600151       3.346467535361265E-003  0.000000000000000E+000
  0.240916015247649       5.741973852708878E-003 -2.525559353285905E-004
  0.000000000000000E+000  5.994529788037468E-003   1.00020804158469     
  0.107563686669934      -4.699825848309867E-003  0.000000000000000E+000
   2.84025389629627     
  0.927986251584928       3.535462227755561E-003  0.000000000000000E+000
  0.244809068135282       5.712705585216307E-003 -2.474269602336556E-004
  0.000000000000000E+000  5.960132545449963E-003   1.00020862547217     
  0.107019085469784      -4.606411682237898E-003  0.000000000000000E+000
   2.83306764353808     
  0.923457056336885       3.730240913818279E-003  0.000000000000000E+000
  0.247568885849205       5.685791525939780E-003 -2.415793395778689E-004
  0.000000000000000E+000  5.927370865517649E-003   1.00020899749087     
  0.106519126938510      -4.502071711270662E-003  0.000000000000000E+000
   2.82645672936480     
  0.918724734063985       3.928866629792209E-003  0.000000000000000E+000
  0.251990104689412       5.661391846633521E-003 -2.364809368137923E-004
  0.000000000000000E+000  5.897872783447313E-003   1.00020966753415     
  0.106065825536194      -4.408228486616123E-003  0.000000000000000E+000
   2.82044928436082     
  0.913782702004972       4.134308086652536E-003  0.000000000000000E+000
  0.255781974971569       5.638662535526051E-003 -2.303295444008509E-004
  0.000000000000000E+000  5.868992079926902E-003   1.00021022060719     
  0.105644588149816      -4.296819365999726E-003  0.000000000000000E+000
   2.81485769983641     
  0.908624062312831       4.341309162270438E-003  0.000000000000000E+000
  0.259298973020350       5.618959690437815E-003 -2.242038079365364E-004
  0.000000000000000E+000  5.843163498374352E-003   1.00021068060172     
  0.105280059598445      -4.184964394337343E-003  0.000000000000000E+000
   2.81001092139977     
  0.903242385263693       4.554834075679027E-003  0.000000000000000E+000
  0.264491721928152       5.598028252049345E-003 -2.186164639580249E-004
  0.000000000000000E+000  5.816644716007371E-003   1.00021143592251     
  0.104892254875723      -4.077264455902030E-003  0.000000000000000E+000
   2.80484286693427     
  0.897630946103148       4.770477692087010E-003  0.000000000000000E+000
  0.267631272829249       5.573826313357341E-003 -2.115512129110684E-004
  0.000000000000000E+000  5.785377526268409E-003   1.00021184740335     
  0.104443948202265      -3.944498723204948E-003  0.000000000000000E+000
   2.79885486332454     
  0.891783373400719       4.989646083122509E-003  0.000000000000000E+000
  0.273445076998769       5.548859844107573E-003 -2.058709869752320E-004
  0.000000000000000E+000  5.754730831082805E-003   1.00021274964684     
  0.103980109729371      -3.840164376361670E-003  0.000000000000000E+000
   2.79264816174896     
  0.885693421287334       5.213290243712273E-003  0.000000000000000E+000
  0.277249766097157       5.528464653787203E-003 -1.984358901529137E-004
  0.000000000000000E+000  5.726900543940116E-003   1.00021330535191     
  0.103602978629876      -3.708040345101082E-003  0.000000000000000E+000
   2.78759562159103     
  0.879354799790459       5.435549238576376E-003  0.000000000000000E+000
  0.280939360328603       5.516142600567747E-003 -1.912713914759401E-004
  0.000000000000000E+000  5.707413992043687E-003   1.00021379330205     
  0.103377134574116      -3.577463632311850E-003  0.000000000000000E+000
   2.78457027226998     
  0.872761850024891       5.661595916410732E-003  0.000000000000000E+000
  0.287249615205155       5.500612315742065E-003 -1.851786212243211E-004
  0.000000000000000E+000  5.685790936966386E-003   1.00021473290029     
  0.103090587106263      -3.457465585413151E-003  0.000000000000000E+000
   2.78072017671243     
  0.865908887614107       5.888050303986711E-003  0.000000000000000E+000
  0.290529987875516       5.477306247139213E-003 -1.767155252987413E-004
  0.000000000000000E+000  5.654021772437954E-003   1.00021514455801     
  0.102659333771846      -3.296599167798411E-003  0.000000000000000E+000
   2.77490933053272     
  0.858790596690845       6.112150921137999E-003  0.000000000000000E+000
  0.294547836685069       5.453949263701689E-003 -1.689970772279097E-004
  0.000000000000000E+000  5.622946340929599E-003   1.00021567836954     
  0.102226369814655      -3.153254225646559E-003  0.000000000000000E+000
   2.76906506786818     
  0.851402232938537       6.337426796155764E-003  0.000000000000000E+000
  0.300669993123392       5.428032187928810E-003 -1.615115090514874E-004
  0.000000000000000E+000  5.589543696980297E-003   1.00021658309059     
  0.101745136303987      -3.010802283885192E-003  0.000000000000000E+000
   2.76255241462880     
  0.843739242234269       6.559807874772471E-003  0.000000000000000E+000
  0.304498558975638       5.399654633999237E-003 -1.520326825484652E-004
  0.000000000000000E+000  5.551687316547703E-003   1.00021708353813     
  0.101218468064256      -2.834704112763171E-003  0.000000000000000E+000
   2.75540529395140     
  0.835797614343686       6.776554441764220E-003  0.000000000000000E+000
  0.308535616191875       5.375294465482435E-003 -1.434147710097084E-004
  0.000000000000000E+000  5.518709236492143E-003   1.00021762488701     
  0.100766437137590      -2.675849016836442E-003  0.000000000000000E+000
   2.74925821265040     
  0.827574033874230       6.990933322577417E-003  0.000000000000000E+000
  0.315212102819032       5.351483136462843E-003 -1.357605229283443E-004
  0.000000000000000E+000  5.487243659391187E-003   1.00021865009051     
  0.100324032688704      -2.532678830409415E-003  0.000000000000000E+000
   2.74322879684965     
  0.819065622350018       7.200829533666883E-003  0.000000000000000E+000
  0.319250835505272       5.330424578884650E-003 -1.256799214640055E-004
  0.000000000000000E+000  5.456104500348656E-003   1.00021921381583     
  9.993392178161936E-002 -2.348282945429217E-003  0.000000000000000E+000
   2.73790028514797     
  0.810270040767068       7.398615321999188E-003  0.000000000000000E+000
  0.322820666769758       5.318010605825617E-003 -1.157033428328351E-004
  0.000000000000000E+000  5.433713948658452E-003   1.00021967320377     
  9.970560544614521E-002 -2.164559714879544E-003  0.000000000000000E+000
   2.73477983199263     
  0.801185958372473       7.589628713596443E-003  0.000000000000000E+000
  0.328905384501923       5.305523469281425E-003 -1.075039634866259E-004
  0.000000000000000E+000  5.413027432768051E-003   1.00022056719038     
  9.947498770518463E-002 -2.008200638395938E-003  0.000000000000000E+000
   2.73162313610194     
  0.791812627973472       7.772394067772765E-003  0.000000000000000E+000
  0.334458506711826       5.284464662634840E-003 -9.801287562251102E-005
  0.000000000000000E+000  5.382477538257351E-003   1.00022135702512     
  9.908367838372142E-002 -1.826557846602942E-003  0.000000000000000E+000
   2.72625039703679     
  0.782150065254686       7.942422822669317E-003  0.000000000000000E+000
  0.338275704911439       5.259898635483598E-003 -8.679244889240014E-005
  0.000000000000000E+000  5.346691084375998E-003   1.00022183352369     
  9.862653856144105E-002 -1.617021459106702E-003  0.000000000000000E+000
   2.71995682605656     
  0.772199185767239       8.095718475719276E-003  0.000000000000000E+000
  0.342294460149787       5.239197321519210E-003 -7.612388246721043E-005
  0.000000000000000E+000  5.315321203986420E-003   1.00022237332286     
  9.824120249295037E-002 -1.419222902659509E-003  0.000000000000000E+000
   2.71463985283177     
  0.761961923922881       8.235501917519613E-003  0.000000000000000E+000
  0.347873186394509       5.219146112285620E-003 -6.652090976480259E-005
  0.000000000000000E+000  5.285667022050423E-003   1.00022321872306     
  9.786733930049010E-002 -1.238091070110067E-003  0.000000000000000E+000
   2.70946958740307     
  0.751441078648974       8.360036325710233E-003  0.000000000000000E+000
  0.353862482068962       5.196304450269267E-003 -5.661425244714753E-005
  0.000000000000000E+000  5.252918702716414E-003   1.00022419556503     
  9.744067139686906E-002 -1.052517431908952E-003  0.000000000000000E+000
   2.70355457700261     
  0.740640446574066       8.467539394565621E-003  0.000000000000000E+000
  0.358137544792726       5.177120595736170E-003 -4.485654840843939E-005
  0.000000000000000E+000  5.221977144144609E-003   1.00022492299107     
  9.708214740404550E-002 -8.354068690372156E-004  0.000000000000000E+000
   2.69856764990847     
  0.729564815658738       8.549226778783900E-003  0.000000000000000E+000
  0.361899473198264       5.165204921646530E-003 -3.284093706173213E-005
  0.000000000000000E+000  5.198045858708263E-003   1.00022559398489     
  9.685928146945488E-002 -6.120943788718915E-004  0.000000000000000E+000
   2.69545610976859     
  0.718220157151689       8.609815858319162E-003  0.000000000000000E+000
  0.367176983746276       5.154521690784940E-003 -2.226062904159062E-005
  0.000000000000000E+000  5.176782319826531E-003   1.00022656136082     
  9.665856976895487E-002 -4.129085990448356E-004  0.000000000000000E+000
   2.69264528436599     
  0.706613454876314       8.648074977020741E-003  0.000000000000000E+000
  0.372113440065505       5.140986347721158E-003 -1.157349490202364E-005
  0.000000000000000E+000  5.152559842623182E-003   1.00022746562909     
  9.640314744083014E-002 -2.115758455261885E-004  0.000000000000000E+000
   2.68905689602291     
  0.694752788406665       8.662372544331720E-003  0.000000000000000E+000
  0.377381757851481       5.126506862234354E-003 -7.177508241870776E-007
  0.000000000000000E+000  5.127224613058541E-003   1.00022843071685     
  9.612865010873047E-002 -8.231066428379375E-006  0.000000000000000E+000
   2.68518424488463     
  0.682647343539202       8.651157664054129E-003  0.000000000000000E+000
  0.382696854795768       5.114196121425250E-003  1.082944065960151E-005
  0.000000000000000E+000  5.125025562084851E-003   1.00022940964410     
  9.589361395959617E-002  2.064512128023995E-004  0.000000000000000E+000
   2.68184732288155     
  0.670307422204054       8.610315629881678E-003  0.000000000000000E+000
  0.386675074293635       5.107445116320279E-003  2.318541649415066E-005
  0.000000000000000E+000  5.130630532814430E-003   1.00023016459789     
  9.576167498170143E-002  4.357029965867297E-004  0.000000000000000E+000
   2.67993987650399     
  0.657744432187388       8.537819516044324E-003  0.000000000000000E+000
  0.390771554838693       5.106080848907636E-003  3.503033482820199E-005
  0.000000000000000E+000  5.141111183735838E-003   1.00023095873074     
  9.572977451887082E-002  6.567480723661675E-004  0.000000000000000E+000
   2.67942499113995     
  0.644970813927204       8.436245338104848E-003  0.000000000000000E+000
  0.395786669881772       5.105546738826345E-003  4.617800028907874E-005
  0.000000000000000E+000  5.151724739115424E-003   1.00023192886520     
  9.571250768631676E-002  8.661028244982584E-004  0.000000000000000E+000
   2.67910812956113     
  0.632000051176599       8.304733450058579E-003  0.000000000000000E+000
  0.400546379135676       5.103783105750178E-003  5.731633793619685E-005
  0.000000000000000E+000  5.161099443686376E-003   1.00023286117725     
  9.567108749361575E-002  1.075095718391109E-003  0.000000000000000E+000
   2.67844392384514     
  0.618846621299056       8.142643113908310E-003  0.000000000000000E+000
  0.405280928997627       5.101975799480556E-003  6.840427989018533E-005
  0.000000000000000E+000  5.170380079370741E-003   1.00023379736777     
  9.562771434092246E-002  1.282682162390803E-003  0.000000000000000E+000
   2.67774241352830     
  0.605525942452643       7.949576021555563E-003  0.000000000000000E+000
  0.410188245512018       5.100616508842510E-003  7.939717421367372E-005
  0.000000000000000E+000  5.180013683056184E-003   1.00023476877925     
  9.559157216023799E-002  1.488483485598746E-003  0.000000000000000E+000
   2.67713170524110     
  0.592054310759683       7.725396929789890E-003  0.000000000000000E+000
  0.415391378165396       5.099358637088265E-003  9.036146955025026E-005
  0.000000000000000E+000  5.189720106638515E-003   1.00023579922568     
  9.555607169717813E-002  1.693591772952382E-003  0.000000000000000E+000
   2.67651844215511     
  0.578448841139469       7.469587338919363E-003  0.000000000000000E+000
  0.419723589421892       5.099673990191031E-003  1.017861440851306E-004
  0.000000000000000E+000  5.201460134276162E-003   1.00023667610449     
  9.554844041989560E-002  1.906591474810875E-003  0.000000000000000E+000
   2.67628041312401     
  0.564727426131715       7.179798545920949E-003  0.000000000000000E+000
  0.424224930255832       5.103834264714958E-003  1.128123793164617E-004
  0.000000000000000E+000  5.216646644031419E-003   1.00023757233167     
  9.561135078788270E-002  2.111675527332877E-003  0.000000000000000E+000
   2.67701298794206     
  0.550908452145140       6.860707846468249E-003  0.000000000000000E+000
  0.429656100665397       5.111183201347493E-003  1.228627101033878E-004
  0.000000000000000E+000  5.234045911450881E-003   1.00023862700363     
  9.573212954371844E-002  2.298700303692543E-003  0.000000000000000E+000
   2.67852926563558     
  0.537010910895377       6.513416561857800E-003  0.000000000000000E+000
  0.434775749156643       5.120769321200003E-003  1.325977401858874E-004
  0.000000000000000E+000  5.253367061385890E-003   1.00023960975029     
  9.589258707094442E-002  2.479805291526125E-003  0.000000000000000E+000
   2.68057069452488     
  0.523054228165777       6.139328491792367E-003  0.000000000000000E+000
  0.439928273610576       5.133177693546764E-003  1.419828466939394E-004
  0.000000000000000E+000  5.275160540240704E-003   1.00024056459289     
  9.610433880118018E-002  2.654005476674895E-003  0.000000000000000E+000
   2.68330655654565     
  0.509058155752480       5.740143054580419E-003  0.000000000000000E+000
  0.445181050026349       5.149080344593174E-003  1.509882640590580E-004
  0.000000000000000E+000  5.300068608652232E-003   1.00024149381849     
  9.638024961777208E-002  2.820757848612428E-003  0.000000000000000E+000
   2.68691711147136     
  0.495042659692362       5.317842972884984E-003  0.000000000000000E+000
  0.450577984973052       5.169140317101942E-003  1.595873873703627E-004
  0.000000000000000E+000  5.328727704472304E-003   1.00024240405222     
  9.673273844279490E-002  2.979580687201030E-003  0.000000000000000E+000
   2.69157078898600     
  0.481027806142041       4.874676585191666E-003  0.000000000000000E+000
  0.456170028637189       5.193926781324353E-003  1.677529477727787E-004
  0.000000000000000E+000  5.361679729097132E-003   1.00024327018828     
  9.717246604029454E-002  3.129972671697707E-003  0.000000000000000E+000
   2.69740937025237     
  0.467033646316841       4.413134998349662E-003  0.000000000000000E+000
  0.462203330503826       5.222132865119233E-003  1.754284315417601E-004
  0.000000000000000E+000  5.397561296660993E-003   1.00024411480182     
  9.767432913408740E-002  3.272071039250811E-003  0.000000000000000E+000
   2.70406912392764     
  0.453080108148714       3.935745123473622E-003  0.000000000000000E+000
  0.468312693362122       5.249713597901387E-003  1.826634519951164E-004
  0.000000000000000E+000  5.432377049896503E-003   1.00024492233140     
  9.816128106236183E-002  3.407447632303102E-003  0.000000000000000E+000
   2.71046258446896     
  0.439186917314490       3.444124449314979E-003  0.000000000000000E+000
  0.475151819806115       5.272220499527816E-003  1.887843838696461E-004
  0.000000000000000E+000  5.461004883397462E-003   1.00024581487487     
  9.855080601885732E-002  3.523334421228767E-003  0.000000000000000E+000
   2.71545910514469     
  0.425373323286012       2.943537917647252E-003  0.000000000000000E+000
  0.484098438914316       5.286081975377568E-003  1.933250543439252E-004
  0.000000000000000E+000  5.479407029721494E-003   1.00024708674833     
  9.877767752237318E-002  3.610524707165493E-003  0.000000000000000E+000
   2.71818636002584     
  0.411658191042757       2.437221773305309E-003  0.000000000000000E+000
  0.494779029511619       5.290262793114158E-003  1.989648781041113E-004
  0.000000000000000E+000  5.489227671218270E-003   1.00024874929112     
  9.881940641750470E-002  3.717629018035918E-003  0.000000000000000E+000
   2.71832215593383     
  0.398060300010423       1.916233981970908E-003  0.000000000000000E+000
  0.505863666472578       5.282508346137357E-003  2.116910621299445E-004
  0.000000000000000E+000  5.494199408267302E-003   1.00025054855945     
  9.862349880758389E-002  3.958127972387124E-003  0.000000000000000E+000
   2.71506579521908     
  0.384598635456386       1.352902573853140E-003  0.000000000000000E+000
  0.514753865203829       5.258246897942814E-003  2.334177650732725E-004
  0.000000000000000E+000  5.491664663016087E-003   1.00025202089775     
  9.809755462532524E-002  4.366987716739268E-003  0.000000000000000E+000
   2.70707036030038     
  0.371291267288200       7.281164213263902E-004  0.000000000000000E+000
  0.519730568473733       5.225641127210794E-003  2.591349684365415E-004
  0.000000000000000E+000  5.484776095647336E-003   1.00025289874560     
  9.740004194431356E-002  4.842679317973681E-003  0.000000000000000E+000
   2.69652837442146     
  0.358154780898738       4.178473641569574E-005  0.000000000000000E+000
  0.525307231462875       5.200065947059924E-003  2.846494806102228E-004
  0.000000000000000E+000  5.484715427670147E-003   1.00025406801084     
  9.682602117139155E-002  5.309011491640666E-003  0.000000000000000E+000
   2.68757965075421     
  0.345204555188213      -6.996594131643285E-004  0.000000000000000E+000
  0.530702941200843       5.186883983023278E-003  3.108520755666767E-004
  0.000000000000000E+000  5.497736058589955E-003   1.00025534533311     
  9.647293030385165E-002  5.786813553127531E-003  0.000000000000000E+000
   2.68157527838659     
  0.332455505085775      -1.498146808410845E-003  0.000000000000000E+000
  0.533875718604122       5.185103572129714E-003  3.363513500261960E-004
  0.000000000000000E+000  5.521454922155910E-003   1.00025634542265     
  9.632315844419120E-002  6.250155697171507E-003  0.000000000000000E+000
   2.67827886595071     
  0.319920537181743      -2.339667901782980E-003  0.000000000000000E+000
  0.537960798004633       5.190477472878406E-003  3.586886912269899E-004
  0.000000000000000E+000  5.549166164105396E-003   1.00025762564030     
  9.630271752119615E-002  6.655545985869852E-003  0.000000000000000E+000
   2.67670158550057     
  0.307611656831778      -3.214917519367286E-003  0.000000000000000E+000
  0.542511090096468       5.198927276349324E-003  3.790622026265970E-004
  0.000000000000000E+000  5.577989478975922E-003   1.00025904024905     
  9.633412858940205E-002  7.023548977564224E-003  0.000000000000000E+000
   2.67575787311443     
  0.295539909591286      -4.117285986877651E-003  0.000000000000000E+000
  0.547191151965080       5.210589311036891E-003  3.980231367035774E-004
  0.000000000000000E+000  5.608612447740469E-003   1.00026056814417     
  9.641749346872690E-002  7.363394750452703E-003  0.000000000000000E+000
   2.67541892089042     
  0.283715218424319      -5.040365564571752E-003  0.000000000000000E+000
  0.552709150411602       5.225340360095463E-003  4.155963571944225E-004
  0.000000000000000E+000  5.640936717289886E-003   1.00026235669248     
  9.654960021198451E-002  7.676523142914305E-003  0.000000000000000E+000
   2.67562700568620     
  0.272146384621058      -5.978022424434283E-003  0.000000000000000E+000
  0.557856482523448       5.243021822558311E-003  4.327966848098936E-004
  0.000000000000000E+000  5.675818507368205E-003   1.00026416082771     
  9.672491037500408E-002  7.980784811904309E-003  0.000000000000000E+000
   2.67628551719736     
  0.260841459952367      -6.928699530984975E-003  0.000000000000000E+000
  0.562294540685571       5.265998828631910E-003  4.491122679169703E-004
  0.000000000000000E+000  5.715111096548880E-003   1.00026596294153     
  9.698786402436381E-002  8.265370806379272E-003  0.000000000000000E+000
   2.67800054376194     
  0.249806769810523      -7.883567295849768E-003  0.000000000000000E+000