 variables = "X","Y","Z","Cp","Cfx","Cfy","Cfz","Cf","T","u","v","w","yplus"
 zone i=         151
   1.00000000000000       1.665324653670056E-017  0.000000000000000E+000
  7.877621358761644E-002  9.220272779468568E-003 -2.522504511668083E-004
  0.000000000000000E+000  9.472523230635375E-003   1.00018203370155     
  0.174425216452785      -2.916197598303961E-002  0.000000000000000E+000
   3.66485867488173     
  0.999001425599671       5.447267690042997E-005  0.000000000000000E+000
  6.815103491840091E-002  8.836120561628609E-003 -4.813097875335698E-004
  0.000000000000000E+000  9.317430349162180E-003   1.00019279407893     
  0.165535403552898      -6.938137292332356E-003  0.000000000000000E+000
   3.52208601695391     
  0.997949997818270       1.116616879644300E-004  0.000000000000000E+000
  7.860549775864456E-002  8.418279289727260E-003 -4.571172626909963E-004
  0.000000000000000E+000  8.875396552418256E-003   1.00019215799098     
  0.157693585460756      -6.868313236435856E-003  0.000000000000000E+000
   3.43780145126615     
  0.996843037128316       1.716701774105140E-004  0.000000000000000E+000
  9.117443085551713E-002  8.057021790112334E-003 -4.362613098250242E-004
  0.000000000000000E+000  8.493283099937358E-003   1.00019257109711     
  0.150915138012585      -6.781267017561655E-003  0.000000000000000E+000
   3.36323460670047     
  0.995677746198344       2.346938777538863E-004  0.000000000000000E+000
  0.103122633060138       7.746886694405061E-003 -4.182284432253436E-004
  0.000000000000000E+000  8.165115137630404E-003   1.00019342020726     
  0.145095450399552      -6.715901025807354E-003  0.000000000000000E+000
   3.29787832374391     
  0.994451193364049       3.007928008083059E-004  0.000000000000000E+000
  0.112854438041268       7.487792085707948E-003 -4.028021658942890E-004
  0.000000000000000E+000  7.890594251602236E-003   1.00019436027508     
  0.140233134949374      -6.669319612197467E-003  0.000000000000000E+000
   3.24227347286146     
  0.993160320569400       3.701124539357903E-004  0.000000000000000E+000
  0.121071801816697       7.276393413513463E-003 -3.901182858787992E-004
  0.000000000000000E+000  7.666511699392262E-003   1.00019531665627     
  0.136265822410335      -6.634484514207937E-003  0.000000000000000E+000
   3.19619212622618     
  0.991801936040528       4.428260084685768E-004  0.000000000000000E+000
  0.128403253792612       7.106725650704048E-003 -3.795871670097918E-004
  0.000000000000000E+000  7.486312817713840E-003   1.00019624235030     
  0.133082001038603      -6.601773203097721E-003  0.000000000000000E+000
   3.15872876332385     
  0.990372703239448       5.189985854962523E-004  0.000000000000000E+000
  0.134541768888766       6.972726436173507E-003 -3.709134465093329E-004
  0.000000000000000E+000  7.343639882682840E-003   1.00019699831187     
  0.130568027901984      -6.567592455129235E-003  0.000000000000000E+000
   3.12883145137933     
  0.988869149734546       5.988289370959963E-004  0.000000000000000E+000
  0.139952769290176       6.866852470148241E-003 -3.638520607243053E-004
  0.000000000000000E+000  7.230704530872547E-003   1.00019756466493     
  0.128582551298808      -6.526798795311623E-003  0.000000000000000E+000
   3.10501179135467     
  0.987287653567351       6.824581442352054E-004  0.000000000000000E+000
  0.145094807219948       6.780514978487712E-003 -3.575463008621272E-004
  0.000000000000000E+000  7.138061279349839E-003   1.00019793996399     
  0.126964921154445      -6.467259763655897E-003  0.000000000000000E+000
   3.08546147984377     
  0.985624436699843       7.699165229630898E-004  0.000000000000000E+000
  0.151631688540874       6.705642844027145E-003 -3.521459697772314E-004
  0.000000000000000E+000  7.057788813804376E-003   1.00019836830574     
  0.125562977943242      -6.399924080122498E-003  0.000000000000000E+000
   3.06840862406899     
  0.983875589210279       8.616377525778661E-004  0.000000000000000E+000
  0.157651321906769       6.638259484883205E-003 -3.466573217845435E-004
  0.000000000000000E+000  6.984916806667749E-003   1.00019865952554     
  0.124302090041597      -6.324944010127434E-003  0.000000000000000E+000
   3.05298991902205     
  0.982037001885699       9.572376115019621E-004  0.000000000000000E+000
  0.163921494967099       6.577244384068494E-003 -3.419529311941785E-004
  0.000000000000000E+000  6.919197315262673E-003   1.00019916386123     
  0.123160171575990      -6.260422648464966E-003  0.000000000000000E+000
   3.03895731855341     
  0.980104478202655       1.057699935824212E-003  0.000000000000000E+000
  0.169218235432027       6.522878349311260E-003 -3.369547735155933E-004
  0.000000000000000E+000  6.859833122826853E-003   1.00019962702668     
  0.122143423479411      -6.191007759277259E-003  0.000000000000000E+000
   3.02641140714993     
  0.978073553669464       1.161948348956863E-003  0.000000000000000E+000
  0.174105601399106       6.475346272126894E-003 -3.323803001739890E-004
  0.000000000000000E+000  6.807726572300883E-003   1.00020011220793     
  0.121254766260752      -6.124264990157574E-003  0.000000000000000E+000
   3.01540156218476     
  0.975939733923639       1.271478426898274E-003  0.000000000000000E+000
  0.178953514870045       6.432965686598631E-003 -3.282590748122918E-004
  0.000000000000000E+000  6.761224761410923E-003   1.00020073500844     
  0.120462689448689      -6.061862431073394E-003  0.000000000000000E+000
   3.00555453479277     
  0.973698227034776       1.385180156087390E-003  0.000000000000000E+000
  0.183072481980389       6.394978850850686E-003 -3.239364122024236E-004
  0.000000000000000E+000  6.718915263053109E-003   1.00020129662535     
  0.119753364601787      -5.993128382370632E-003  0.000000000000000E+000
   2.99670785173335     
  0.971344194597081       1.504258504303337E-003  0.000000000000000E+000
  0.187678254269940       6.359774426908883E-003 -3.200520377402511E-004
  0.000000000000000E+000  6.679826464649134E-003   1.00020193024982     
  0.119096182731165      -5.927407070809148E-003  0.000000000000000E+000
   2.98848702970417     
  0.968872537262536       1.628001624485897E-003  0.000000000000000E+000
  0.191693123591676       6.326343653389107E-003 -3.157535469891432E-004
  0.000000000000000E+000  6.642097200378251E-003   1.00020242347467     
  0.118472678113041      -5.853670235037326E-003  0.000000000000000E+000
   2.98066658515501     
  0.966278062333970       1.757096938973359E-003  0.000000000000000E+000
  0.196247287486813       6.293160028873551E-003 -3.117464826220367E-004
  0.000000000000000E+000  6.604906511495588E-003   1.00020298181801     
  0.117853853974639      -5.779532436907524E-003  0.000000000000000E+000
   2.97288169501160     
  0.963555373647426       1.891373763395130E-003  0.000000000000000E+000
  0.200208196946278       6.258774516592350E-003 -3.071954677597084E-004
  0.000000000000000E+000  6.565969984352058E-003   1.00020342628365     
  0.117212927840707      -5.696051659542187E-003  0.000000000000000E+000
   2.96479726357235     
  0.960698927782761       2.030904889090778E-003  0.000000000000000E+000
  0.204583639917701       6.223012374917880E-003 -3.027846117666544E-004
  0.000000000000000E+000  6.525796986684534E-003   1.00020393925191     
  0.116546092440059      -5.613648459054811E-003  0.000000000000000E+000
   2.95636148722051     
  0.957703044267799       2.176098169407578E-003  0.000000000000000E+000
  0.208422019338059       6.185984200079765E-003 -2.979073356197119E-004
  0.000000000000000E+000  6.483891535699476E-003   1.00020437133147     
  0.115855861585343      -5.523904441183929E-003  0.000000000000000E+000
   2.94760496544267     
  0.954561846157195       2.326415247496387E-003  0.000000000000000E+000
  0.212653417895808       6.148687951954912E-003 -2.931007452604070E-004
  0.000000000000000E+000  6.441788697215319E-003   1.00020488720037     
  0.115160442229187      -5.436614536333290E-003  0.000000000000000E+000
   2.93875686184407     
  0.951269384357213       2.482757904136671E-003  0.000000000000000E+000
  0.216717333863926       6.111761849453572E-003 -2.880394320126660E-004
  0.000000000000000E+000  6.399801281466238E-003   1.00020537705269     
  0.114472168621686      -5.345577784839533E-003  0.000000000000000E+000
   2.92997456813266     
  0.947819482538107       2.644120805717701E-003  0.000000000000000E+000
  0.220891994377553       6.075716135498548E-003 -2.829285554970776E-004
  0.000000000000000E+000  6.358644690995626E-003   1.00020588726414     
  0.113800441604040      -5.253144811204428E-003  0.000000000000000E+000
   2.92137782385544     
  0.944205942257812       2.811651156899837E-003  0.000000000000000E+000
  0.225353310298487       6.040337191784148E-003 -2.777553196489401E-004
  0.000000000000000E+000  6.318092511433089E-003   1.00020645803272     
  0.113141294848510      -5.159478453446803E-003  0.000000000000000E+000
   2.91291826420956     
  0.940422342196095       2.984205242399509E-003  0.000000000000000E+000
  0.229440386225406       6.006103221441495E-003 -2.723259229419260E-004
  0.000000000000000E+000  6.278429144383421E-003   1.00020698856999     
  0.112503793409255      -5.061513687942802E-003  0.000000000000000E+000
   2.90471342315744     
  0.936462258150449       3.162718150678633E-003  0.000000000000000E+000
  0.234172766522988       5.971624023590996E-003 -2.670132951363401E-004
  0.000000000000000E+000  6.238637318727335E-003   1.00020764716390     
  0.111861734139087      -4.962175606212449E-003  0.000000000000000E+000
   2.89642492461196     
  0.932319101600151       3.346467535361265E-003  0.000000000000000E+000
  0.238238319486982       5.935813548435711E-003 -2.610818127819250E-004
  0.000000000000000E+000  6.196895361217636E-003   1.00020818051421     
  0.111195118371843      -4.852376346450247E-003  0.000000000000000E+000
   2.88779423391601     
  0.927986251584928       3.535462227755561E-003  0.000000000000000E+000
  0.243435646825219       5.899595501847901E-003 -2.555214792131738E-004
  0.000000000000000E+000  6.155116981061075E-003   1.00020890648371     
  0.110520449127824      -4.750603237209423E-003  0.000000000000000E+000
   2.87903404748522     
  0.923457056336885       3.730240913818279E-003  0.000000000000000E+000
  0.247370600136037       5.865025153086009E-003 -2.491946628789681E-004
  0.000000000000000E+000  6.114219815964977E-003   1.00020941235042     
  0.109877208596794      -4.636770046816459E-003  0.000000000000000E+000
   2.87065870049294     
  0.918724734063985       3.928866629792209E-003  0.000000000000000E+000
  0.252808902602965       5.832581058640536E-003 -2.436316492612024E-004
  0.000000000000000E+000  6.076212707901738E-003   1.00021021062923     
  0.109273274576767      -4.534918800587881E-003  0.000000000000000E+000
   2.86277287099410     
  0.913782702004972       4.134308086652536E-003  0.000000000000000E+000
  0.257493950921116       5.802280555218719E-003 -2.370130553894491E-004
  0.000000000000000E+000  6.039293610608168E-003   1.00021088177980     
  0.108710277878227      -4.415653687589822E-003  0.000000000000000E+000
   2.85540440437943     
  0.908624062312831       4.341309162270438E-003  0.000000000000000E+000
  0.261847227145381       5.775624820476757E-003 -2.304549505989275E-004
  0.000000000000000E+000  6.006079771075684E-003   1.00021144870697     
  0.108215589777904      -4.295961598151944E-003  0.000000000000000E+000
   2.84891479990848     
  0.903242385263693       4.554834075679027E-003  0.000000000000000E+000
  0.267747923961679       5.747999968724824E-003 -2.244732200062683E-004
  0.000000000000000E+000  5.972473188731092E-003   1.00021229820931     
  0.107702448287355      -4.181577718273851E-003  0.000000000000000E+000
   2.84216535443743     
  0.897630946103148       4.770477692087010E-003  0.000000000000000E+000
  0.271341133349097       5.718139430213252E-003 -2.170285301043818E-004
  0.000000000000000E+000  5.935167960317633E-003   1.00021281367100     
  0.107148167987776      -4.043466570317726E-003  0.000000000000000E+000
   2.83485601885938     
  0.891783373400719       4.989646083122509E-003  0.000000000000000E+000
  0.277608530773477       5.689351526346804E-003 -2.110834381853527E-004
  0.000000000000000E+000  5.900434964532157E-003   1.00021382061817     
  0.106612761220504      -3.935614237610172E-003  0.000000000000000E+000
   2.82778057214267     
  0.885693421287334       5.213290243712273E-003  0.000000000000000E+000
  0.282109033493498       5.665992308942079E-003 -2.033722375848494E-004
  0.000000000000000E+000  5.869364546526929E-003   1.00021446468981     
  0.106180206503072      -3.798429716692934E-003  0.000000000000000E+000
   2.82205528687548     
  0.879354799790459       5.435549238576376E-003  0.000000000000000E+000
  0.286672657045074       5.650390919443888E-003 -1.959264311504763E-004
  0.000000000000000E+000  5.846317350594364E-003   1.00021507444388     
  0.105893032115609      -3.662307948227887E-003  0.000000000000000E+000
   2.81825159792016     
  0.872761850024891       5.661595916410732E-003  0.000000000000000E+000
  0.293820794890507       5.631218630362264E-003 -1.895754948144738E-004
  0.000000000000000E+000  5.820794125176738E-003   1.00021615094929     
  0.105538322250567      -3.537396945192615E-003  0.000000000000000E+000
   2.81353989350457     
  0.865908887614107       5.888050303986711E-003  0.000000000000000E+000
  0.297875321394031       5.603789011279281E-003 -1.807962662060000E-004
  0.000000000000000E+000  5.784585277485281E-003   1.00021668405742     
  0.105029912723866      -3.370239871331998E-003  0.000000000000000E+000
   2.80676676224999     
  0.858790596690845       6.112150921137999E-003  0.000000000000000E+000
  0.302679065016946       5.575706112186334E-003 -1.727698573421505E-004
  0.000000000000000E+000  5.748475969528484E-003   1.00021733531913     
  0.104508477686260      -3.220843895186259E-003  0.000000000000000E+000
   2.79980475008750     
  0.851402232938537       6.337426796155764E-003  0.000000000000000E+000
  0.309667605926506       5.545167039214939E-003 -1.649968653665518E-004
  0.000000000000000E+000  5.710163904581490E-003   1.00021837470244     
  0.103940675298598      -3.073665310577395E-003  0.000000000000000E+000
   2.79220226040776     
  0.843739242234269       6.559807874772471E-003  0.000000000000000E+000
  0.314303208805541       5.513161933989299E-003 -1.552285941738084E-004
  0.000000000000000E+000  5.668390528163108E-003   1.00021899992643     
  0.103346087262460      -2.892944612169998E-003  0.000000000000000E+000
   2.78421744667302     
  0.835797614343686       6.776554441764220E-003  0.000000000000000E+000
  0.319069132903905       5.486021264555535E-003 -1.463690014268474E-004
  0.000000000000000E+000  5.632390265982383E-003   1.00021965345284     
  0.102842014259055      -2.729821122649213E-003  0.000000000000000E+000
   2.77743216461191     
  0.827574033874230       6.990933322577417E-003  0.000000000000000E+000
  0.326638036347276       5.459388818018931E-003 -1.384979568684428E-004
  0.000000000000000E+000  5.597886774887374E-003   1.00022081864582     
  0.102346797697269      -2.582401283054073E-003  0.000000000000000E+000
   2.77074988834101     
  0.819065622350018       7.200829533666883E-003  0.000000000000000E+000
  0.331576686435028       5.435110901959978E-003 -1.281481992050835E-004
  0.000000000000000E+000  5.563259101165062E-003   1.00022152546332     
  0.101896417302668      -2.392848972768469E-003  0.000000000000000E+000
   2.76465749347150     
  0.810270040767068       7.398615321999188E-003  0.000000000000000E+000
  0.335961571831831       5.419426189950754E-003 -1.179098299473052E-004
  0.000000000000000E+000  5.537336019898059E-003   1.00022211735740     
  0.101606851532557      -2.204362417162434E-003  0.000000000000000E+000
   2.76073591008612     
  0.801185958372473       7.589628713596443E-003  0.000000000000000E+000
  0.342858197411715       5.403805067477742E-003 -1.094954090403622E-004
  0.000000000000000E+000  5.513300476518105E-003   1.00022314378654     
  0.101317525733544      -2.044061532240688E-003  0.000000000000000E+000
   2.75681091598522     
  0.791812627973472       7.772394067772765E-003  0.000000000000000E+000
  0.349189457974944       5.380271387419864E-003 -9.978983753524476E-005
  0.000000000000000E+000  5.480061224955109E-003   1.00022405747940     
  0.100879854341190      -1.859019693979764E-003  0.000000000000000E+000
   2.75085596926412     
  0.782150065254686       7.942422822669317E-003  0.000000000000000E+000
  0.353821320240513       5.354344447152662E-003 -8.835087877915175E-005
  0.000000000000000E+000  5.442695325931814E-003   1.00022467138472     
  0.100397240350844      -1.645911502431757E-003  0.000000000000000E+000
   2.74427120798710     
  0.772199185767239       8.095718475719276E-003  0.000000000000000E+000
  0.358710944713266       5.332707198140176E-003 -7.748255143333311E-005
  0.000000000000000E+000  5.410189749573509E-003   1.00022536946919     
  9.999439495621579E-002 -1.444319837662211E-003  0.000000000000000E+000
   2.73876201959069     
  0.761961923922881       8.235501917519613E-003  0.000000000000000E+000
  0.365153978874787       5.311651418904512E-003 -6.769994115691661E-005
  0.000000000000000E+000  5.379351360061429E-003   1.00022637726599     
  9.960172013615379E-002 -1.259823536446545E-003  0.000000000000000E+000
   2.73337959940977     
  0.751441078648974       8.360036325710233E-003  0.000000000000000E+000
  0.372024277865421       5.287878027933400E-003 -5.761195565335211E-005
  0.000000000000000E+000  5.345489983586752E-003   1.00022752549534     
  9.915759659030954E-002 -1.070929041164359E-003  0.000000000000000E+000
   2.72727668323091     
  0.740640446574066       8.467539394565621E-003  0.000000000000000E+000
  0.377167703340774       5.267949690268502E-003 -4.564352633527363E-005
  0.000000000000000E+000  5.313593216603776E-003   1.00022842555323     
  9.878512040205460E-002 -8.499688061560638E-004  0.000000000000000E+000
   2.72214114199691     
  0.729564815658738       8.549226778783900E-003  0.000000000000000E+000
  0.381781454959764       5.255423312710226E-003 -3.341455544076230E-005
  0.000000000000000E+000  5.288837868150989E-003   1.00022927353152     
  9.855079949080292E-002 -6.226847862288969E-004  0.000000000000000E+000
   2.71889864060866     
  0.718220157151689       8.609815858319162E-003  0.000000000000000E+000
  0.387904684265550       5.244206488333186E-003 -2.264794722848530E-005
  0.000000000000000E+000  5.266854435561671E-003   1.00023042479147     
  9.834006127571200E-002 -4.200452984581703E-004  0.000000000000000E+000
   2.71597360247834     
  0.706613454876314       8.648074977020741E-003  0.000000000000000E+000
  0.393658510059367       5.230754249467213E-003 -1.177558228486705E-005
  0.000000000000000E+000  5.242529831752081E-003   1.00023150796777     
  9.808615531749509E-002 -2.156802172478340E-004  0.000000000000000E+000
   2.71243681321868     
  0.694752788406665       8.662372544331720E-003  0.000000000000000E+000
  0.399684089669108       5.217380449839759E-003 -7.304738776399145E-007
  0.000000000000000E+000  5.218110923717399E-003   1.00023263992511     
  9.783232779174819E-002 -9.112345506573089E-006  0.000000000000000E+000
   2.70888325624935     
  0.682647343539202       8.651157664054129E-003  0.000000000000000E+000
  0.405843843485854       5.206318184860195E-003  1.102451144158617E-005
  0.000000000000000E+000  5.217342696301782E-003   1.00023379979041     
  9.762061471774836E-002  2.096973637726662E-004  0.000000000000000E+000
   2.70589815124946     
  0.670307422204054       8.610315629881678E-003  0.000000000000000E+000
  0.410786444994073       5.200201611095317E-003  2.360648766283685E-005
  0.000000000000000E+000  5.223808098758154E-003   1.00023475603683     
  9.750045943530361E-002  4.434207993652971E-004  0.000000000000000E+000
   2.70417030705609     
  0.657744432187388       8.537819516044324E-003  0.000000000000000E+000
  0.415799226127547       5.199032011888130E-003  3.566802749944501E-005
  0.000000000000000E+000  5.234700039387575E-003   1.00023574393905     
  9.747207891968077E-002  6.686215273666950E-004  0.000000000000000E+000
   2.70370793851889     
  0.644970813927204       8.436245338104848E-003  0.000000000000000E+000
  0.421702024023716       5.198607537814672E-003  4.701970476984468E-005
  0.000000000000000E+000  5.245627242584517E-003   1.00023690636284     
  9.745672130816177E-002  8.817764220808652E-004  0.000000000000000E+000
   2.70341933257416     
  0.632000051176599       8.304733450058579E-003  0.000000000000000E+000
  0.427363060800644       5.197399234132984E-003  5.836766269149112E-005
  0.000000000000000E+000  5.255766896824475E-003   1.00023803619620     
  9.742554698607654E-002  1.094423264657085E-003  0.000000000000000E+000
   2.70290194766147     
  0.618846621299056       8.142643113908310E-003  0.000000000000000E+000
  0.433026377181477       5.196912096022030E-003  6.967712967516396E-005
  0.000000000000000E+000  5.266589225697194E-003   1.00023917576311     
  9.740673262179847E-002  1.305917459704465E-003  0.000000000000000E+000
   2.70254602587676     
  0.605525942452643       7.949576021555563E-003  0.000000000000000E+000
  0.438921524719490       5.197286207680183E-003  8.090195323652638E-005
  0.000000000000000E+000  5.278188160916709E-003   1.00024036630769     
  9.740286259683270E-002  1.516069752177532E-003  0.000000000000000E+000
   2.70238701078012     
  0.592054310759683       7.725396929789890E-003  0.000000000000000E+000
  0.445117174300549       5.197341379446999E-003  9.209773975950575E-005
  0.000000000000000E+000  5.289439119206505E-003   1.00024162062906     
  9.739172015924027E-002  1.725804041914191E-003  0.000000000000000E+000
   2.70211558215002     
  0.578448841139469       7.469587338919363E-003  0.000000000000000E+000
  0.450401918070838       5.198213301316248E-003  1.037529240227441E-004
  0.000000000000000E+000  5.301966225338992E-003   1.00024271788024     
  9.739423584126765E-002  1.943346235677112E-003  0.000000000000000E+000
   2.70201840759168     
  0.564727426131715       7.179798545920949E-003  0.000000000000000E+000
  0.455853253483383       5.202872339909672E-003  1.150014631062267E-004
  0.000000000000000E+000  5.317873803015899E-003   1.00024384578793     
  9.746618422253145E-002  2.152448094038173E-003  0.000000000000000E+000
   2.70286671135317     
  0.550908452145140       6.860707846468249E-003  0.000000000000000E+000
  0.462252961178137       5.211206089845922E-003  1.252670620089665E-004
  0.000000000000000E+000  5.336473151854888E-003   1.00024514326951     
  9.760506598634341E-002  2.343333367736648E-003  0.000000000000000E+000
   2.70461618173330     
  0.537010910895377       6.513416561857800E-003  0.000000000000000E+000
  0.468341866847595       5.222287314629414E-003  1.352264577796557E-004
  0.000000000000000E+000  5.357513772409069E-003   1.00024637526204     
  9.779313276277792E-002  2.528470062873211E-003  0.000000000000000E+000
   2.70701635833847     
  0.523054228165777       6.139328491792367E-003  0.000000000000000E+000
  0.474425977353349       5.236751320761324E-003  1.448476760804572E-004
  0.000000000000000E+000  5.381598996841781E-003   1.00024758009816     
  9.804294802025773E-002  2.706889792321873E-003  0.000000000000000E+000
   2.71024746641031     
  0.509058155752480       5.740143054580419E-003  0.000000000000000E+000
  0.480633583560802       5.255345510870079E-003  1.541043142592675E-004
  0.000000000000000E+000  5.409449825129346E-003   1.00024876496669     
  9.836878496144674E-002  2.878127252848742E-003  0.000000000000000E+000
   2.71450652353149     
  0.495042659692362       5.317842972884984E-003  0.000000000000000E+000
  0.487056404516352       5.278668466070561E-003  1.629688608689717E-004
  0.000000000000000E+000  5.441637326939533E-003   1.00024993997326     
  9.878184515786409E-002  3.041753117449360E-003  0.000000000000000E+000
   2.71994204447776     
  0.481027806142041       4.874676585191666E-003  0.000000000000000E+000
  0.493746437993195       5.306896759919269E-003  1.714016412576838E-004
  0.000000000000000E+000  5.478298401176953E-003   1.00025108213016     
  9.928543158443412E-002  3.197165056577063E-003  0.000000000000000E+000
   2.72659151174342     
  0.467033646316841       4.413134998349662E-003  0.000000000000000E+000
  0.500823156515935       5.337536789186152E-003  1.793052247772055E-004
  0.000000000000000E+000  5.516842013963357E-003   1.00025219071088     
  9.983221671320147E-002  3.344106601146345E-003  0.000000000000000E+000
   2.73378953175300     
  0.453080108148714       3.935745123473622E-003  0.000000000000000E+000
  0.507881922566412       5.365898897999658E-003  1.867061121539497E-004
  0.000000000000000E+000  5.552605010153608E-003   1.00025324264501     
  0.100333105396612       3.483050490969015E-003  0.000000000000000E+000
   2.74029711260141     
  0.439186917314490       3.444124449314979E-003  0.000000000000000E+000
  0.515553819636807       5.388602045627342E-003  1.929517016969325E-004
  0.000000000000000E+000  5.581553747324275E-003   1.00025436347032     
  0.100725593504619       3.601142387664527E-003  0.000000000000000E+000
   2.74527165654306     
  0.425373323286012       2.943537917647252E-003  0.000000000000000E+000
  0.525081837986818       5.402893555376528E-003  1.975971419038580E-004
  0.000000000000000E+000  5.600490697280386E-003   1.00025582934907     
  0.100959780299651       3.690176815327844E-003  0.000000000000000E+000
   2.74806022354029     
  0.411658191042757       2.437221773305309E-003  0.000000000000000E+000
  0.536313959953077       5.408025512100676E-003  2.033938915359369E-004
  0.000000000000000E+000  5.611419403636613E-003   1.00025769606030     
  0.101018468287950       3.799924782433244E-003  0.000000000000000E+000
   2.74841549465637     
  0.398060300010423       1.916233981970908E-003  0.000000000000000E+000
  0.547775788852277       5.403447368416143E-003  2.165375681911921E-004
  0.000000000000000E+000  5.619984936607335E-003   1.00025967725955     
  0.100880755770479       4.047172838919551E-003  0.000000000000000E+000
   2.74597384586922     
  0.384598635456386       1.352902573853140E-003  0.000000000000000E+000
  0.557277934833337       5.386553560292277E-003  2.391133987901997E-004
  0.000000000000000E+000  5.625666959082476E-003   1.00026137208841     
  0.100490653274930       4.470211506114789E-003  0.000000000000000E+000
   2.73990294238384     
  0.371291267288200       7.281164213263902E-004  0.000000000000000E+000
  0.563614588412293       5.364166284881890E-003  2.660043083290339E-004
  0.000000000000000E+000  5.630170593210923E-003   1.00026259205911     
  9.998142636331832E-002  4.967290169365307E-003  0.000000000000000E+000
   2.73203933016271     
  0.358154780898738       4.178473641569574E-005  0.000000000000000E+000
  0.570209047230264       5.348272565407244E-003  2.927622491872193E-004
  0.000000000000000E+000  5.641034814594464E-003   1.00026398433117     
  9.958505113877271E-002  5.457230344843272E-003  0.000000000000000E+000
   2.72561385081446     
  0.345204555188213      -6.996594131643285E-004  0.000000000000000E+000
  0.576490557371699       5.342691418316292E-003  3.201896779423335E-004
  0.000000000000000E+000  5.662881096258626E-003   1.00026538890876     
  9.937021285747966E-002  5.958380264485716E-003  0.000000000000000E+000
   2.72155719399351     
  0.332455505085775      -1.498146808410845E-003  0.000000000000000E+000
  0.581053260758154       5.345911712338022E-003  3.467827778210125E-004
  0.000000000000000E+000  5.692694490159035E-003   1.00026651707100     
  9.930976163310939E-002  6.442854873349648E-003  0.000000000000000E+000
   2.71949823069396     
  0.319920537181743      -2.339667901782980E-003  0.000000000000000E+000
  0.586642547395286       5.354532579341337E-003  3.700257427209867E-004
  0.000000000000000E+000  5.724558322062324E-003   1.00026788223871     
  9.934582570675615E-002  6.864907574371363E-003  0.000000000000000E+000
   2.71867976845265     
  0.307611656831778      -3.214917519367286E-003  0.000000000000000E+000
  0.592831000663409       5.366655379987741E-003  3.912915298984562E-004
  0.000000000000000E+000  5.757946909886198E-003   1.00026943995100     
  9.944136402478546E-002  7.248698132521365E-003  0.000000000000000E+000
   2.71858496765712     
  0.295539909591286      -4.117285986877651E-003  0.000000000000000E+000
  0.599218399029041       5.382550006388406E-003  4.111587592303974E-004
  0.000000000000000E+000  5.793708765618803E-003   1.00027116274724     
  9.959876119338196E-002  7.605008249289663E-003  0.000000000000000E+000
   2.71921564684307     
  0.283715218424319      -5.040365564571752E-003  0.000000000000000E+000
  0.606128031164872       5.401314993750158E-003  4.295924628831079E-004
  0.000000000000000E+000  5.830907456633267E-003   1.00027314878792     
  9.980037773151551E-002  7.933755663361845E-003  0.000000000000000E+000
   2.72031598826728     
  0.272146384621058      -5.978022424434283E-003  0.000000000000000E+000
  0.612639701557327       5.422832783564567E-003  4.476395730708905E-004
  0.000000000000000E+000  5.870472356635458E-003   1.00027518199823     
  0.100041358536894       8.253261954855077E-003  0.000000000000000E+000
   2.72179931241326     
  0.260841459952367      -6.928699530984975E-003  0.000000000000000E+000
  0.618699854583156       5.449264747694612E-003  4.647421559736591E-004
  0.000000000000000E+000  5.914006903668272E-003   1.00027721544599     
  0.100362403086841       8.552128388393421E-003  0.000000000000000E+000
   2.72421080936497     
  0.249806769810523      -7.883567295849768E-003  0.000000000000000E+000