 variables = "X","Y","Z","Cp","Cfx","Cfy","Cfz","Cf","T","u","v","w","yplus"
 zone i=         151
   1.00000000000000       1.665324653670056E-017  0.000000000000000E+000
 -8.185271248748904E-003  1.021453886149639E-002 -2.792879190191306E-004
  0.000000000000000E+000  1.049382678051552E-002   1.00017029388671     
  0.193350198551190      -2.811684118151417E-002  0.000000000000000E+000
   3.85208937797215     
  0.999001425599671       5.447267690042997E-005  0.000000000000000E+000
  1.176810069409839E-004  9.934904564173922E-003 -5.411613358099886E-004
  0.000000000000000E+000  1.047606589998391E-002   1.00018571855982     
  0.186092297507300      -8.327628897374775E-003  0.000000000000000E+000
   3.73455426840632     
  0.997949997818270       1.116616879644300E-004  0.000000000000000E+000
  5.917833490229896E-003  9.583007298436313E-003 -5.203626437061854E-004
  0.000000000000000E+000  1.010336994214250E-002   1.00018544310952     
  0.179482423333450      -8.373182445747014E-003  0.000000000000000E+000
   3.66781697740983     
  0.996843037128316       1.716701774105140E-004  0.000000000000000E+000
  1.652406414859797E-002  9.299439620489935E-003 -5.035341613908758E-004
  0.000000000000000E+000  9.802973781880811E-003   1.00018644270850     
  0.174158368591581      -8.365946002079978E-003  0.000000000000000E+000
   3.61315283287360     
  0.995677746198344       2.346938777538863E-004  0.000000000000000E+000
  2.723671655030557E-002  9.065517380679042E-003 -4.894168938510700E-004
  0.000000000000000E+000  9.554934274530113E-003   1.00018757735319     
  0.169767999759729      -8.332116484018217E-003  0.000000000000000E+000
   3.56743752742579     
  0.994451193364049       3.007928008083059E-004  0.000000000000000E+000
  3.699635319367189E-002  8.869939867645013E-003 -4.771541397588410E-004
  0.000000000000000E+000  9.347094007403854E-003   1.00018856011320     
  0.166099532727116      -8.263656467272101E-003  0.000000000000000E+000
   3.52877116697732     
  0.993160320569400       3.701124539357903E-004  0.000000000000000E+000
  4.774387493603172E-002  8.699119888829579E-003 -4.663966813573956E-004
  0.000000000000000E+000  9.165516570186974E-003   1.00018957377105     
  0.162898114538138      -8.155373991446377E-003  0.000000000000000E+000
   3.49465527504300     
  0.991801936040528       4.428260084685768E-004  0.000000000000000E+000
  5.988857176816964E-002  8.540515877844625E-003 -4.561693227869497E-004
  0.000000000000000E+000  8.996685200631575E-003   1.00019060594373     
  0.159927576225285      -8.019369110556574E-003  0.000000000000000E+000
   3.46268474977252     
  0.990372703239448       5.189985854962523E-004  0.000000000000000E+000
  7.201561233364373E-002  8.388826214144156E-003 -4.462427246600667E-004
  0.000000000000000E+000  8.835068938804223E-003   1.00019158576897     
  0.157086880985099      -7.883252144508591E-003  0.000000000000000E+000
   3.43183165232610     
  0.988869149734546       5.988289370959963E-004  0.000000000000000E+000
  8.325610647830217E-002  8.244792787261420E-003 -4.368646128046085E-004
  0.000000000000000E+000  8.681657400066028E-003   1.00019254464778     
  0.154389413120576      -7.757659352196957E-003  0.000000000000000E+000
   3.40227622222032     
  0.987287653567351       6.824581442352054E-004  0.000000000000000E+000
  9.269414341201809E-002  8.109408565069696E-003 -4.276207696588201E-004
  0.000000000000000E+000  8.537029334728516E-003   1.00019341287394     
  0.151854520937628      -7.629024774214116E-003  0.000000000000000E+000
   3.37426389384352     
  0.985624436699843       7.699165229630898E-004  0.000000000000000E+000
  0.102259472475453       7.980200708956168E-003 -4.190792117683770E-004
  0.000000000000000E+000  8.399279920724544E-003   1.00019437611953     
  0.149435662628010      -7.499089089552735E-003  0.000000000000000E+000
   3.34730804920552     
  0.983875589210279       8.616377525778661E-004  0.000000000000000E+000
  0.110987722042182       7.854409781096222E-003 -4.101660477180380E-004
  0.000000000000000E+000  8.264575828814260E-003   1.00019509260439     
  0.147081655522619      -7.356965743491085E-003  0.000000000000000E+000
   3.32086300656125     
  0.982037001885699       9.572376115019621E-004  0.000000000000000E+000
  0.120335160582727       7.730564140310578E-003 -4.019143752610702E-004
  0.000000000000000E+000  8.132478515571648E-003   1.00019582530106     
  0.144763783712722      -7.221612154518484E-003  0.000000000000000E+000
   3.29461314789104     
  0.980104478202655       1.057699935824212E-003  0.000000000000000E+000
  0.128478950893850       7.609100195223003E-003 -3.930661420201972E-004
  0.000000000000000E+000  8.002166337243200E-003   1.00019634751395     
  0.142491080098584      -7.079332758029273E-003  0.000000000000000E+000
   3.26867349848920     
  0.978073553669464       1.161948348956863E-003  0.000000000000000E+000
  0.136017551104487       7.491292237997825E-003 -3.845289283562806E-004
  0.000000000000000E+000  7.875821166354106E-003   1.00019686133622     
  0.140286807713612      -6.939304992456159E-003  0.000000000000000E+000
   3.24331343640343     
  0.975939733923639       1.271478426898274E-003  0.000000000000000E+000
  0.143756797774813       7.376203149066686E-003 -3.763902583588388E-004
  0.000000000000000E+000  7.752593407425524E-003   1.00019751918262     
  0.138133351212571      -6.805635313643763E-003  0.000000000000000E+000
   3.21834559739515     
  0.973698227034776       1.385180156087390E-003  0.000000000000000E+000
  0.150581188713886       7.264992777048556E-003 -3.680067986976985E-004
  0.000000000000000E+000  7.632999575746255E-003   1.00019811562650     
  0.136052700631979      -6.670606848652528E-003  0.000000000000000E+000
   3.19403747446292     
  0.971344194597081       1.504258504303337E-003  0.000000000000000E+000
  0.157688022747152       7.159084109473328E-003 -3.602768433164182E-004
  0.000000000000000E+000  7.519360952789747E-003   1.00019879433354     
  0.134071049280292      -6.547522389024118E-003  0.000000000000000E+000
   3.17071417336242     
  0.968872537262536       1.628001624485897E-003  0.000000000000000E+000
  0.163762364476725       7.060060610142165E-003 -3.523740253280546E-004
  0.000000000000000E+000  7.412434635470220E-003   1.00019935946388     
  0.132218609651314      -6.424639408533292E-003  0.000000000000000E+000
   3.14875784852462     
  0.966278062333970       1.757096938973359E-003  0.000000000000000E+000
  0.169938119023072       6.969315945419195E-003 -3.452414559451821E-004
  0.000000000000000E+000  7.314557401364378E-003   1.00020010437393     
  0.130520994702763      -6.314140439463038E-003  0.000000000000000E+000
   3.12850195761997     
  0.963555373647426       1.891373763395130E-003  0.000000000000000E+000
  0.175198961158458       6.887070937554219E-003 -3.380337430789861E-004
  0.000000000000000E+000  7.225104680633205E-003   1.00020076037477     
  0.128983056750003      -6.201306212934164E-003  0.000000000000000E+000
   3.11003851072553     
  0.960698927782761       2.030904889090778E-003  0.000000000000000E+000
  0.181052756572399       6.812384502958402E-003 -3.314608861508042E-004
  0.000000000000000E+000  7.143845389109206E-003   1.00020150339881     
  0.127586695936876      -6.094816647383257E-003  0.000000000000000E+000
   3.09317841249297     
  0.957703044267799       2.176098169407578E-003  0.000000000000000E+000
  0.186557554911133       6.743809382724268E-003 -3.247713248178816E-004
  0.000000000000000E+000  7.068580707542150E-003   1.00020216906743     
  0.126305292387344      -5.983902425158942E-003  0.000000000000000E+000
   3.07762563502608     
  0.954561846157195       2.326415247496387E-003  0.000000000000000E+000
  0.192550266162471       6.680074124987380E-003 -3.184313010156928E-004
  0.000000000000000E+000  6.998505426003073E-003   1.00020289885448     
  0.125114603903363      -5.875152397652147E-003  0.000000000000000E+000
   3.06310197076894     
  0.951269384357213       2.482757904136671E-003  0.000000000000000E+000
  0.198579099940616       6.619599791926143E-003 -3.119731773039740E-004
  0.000000000000000E+000  6.931572969230117E-003   1.00020362540112     
  0.123985325797109      -5.762646666812210E-003  0.000000000000000E+000
   3.04926396606883     
  0.947819482538107       2.644120805717701E-003  0.000000000000000E+000
  0.204724159138777       6.561727127364865E-003 -3.055606838724706E-004
  0.000000000000000E+000  6.867287811237336E-003   1.00020437887524     
  0.122904887521116      -5.649015100655373E-003  0.000000000000000E+000
   3.03596471826789     
  0.944205942257812       2.811651156899837E-003  0.000000000000000E+000
  0.211277728928280       6.505461912079643E-003 -2.991433415779720E-004
  0.000000000000000E+000  6.804605253657616E-003   1.00020521182929     
  0.121854689449565      -5.534040236908110E-003  0.000000000000000E+000
   3.02298199901935     
  0.940422342196095       2.984205242399509E-003  0.000000000000000E+000
  0.217501990955952       6.450668651343443E-003 -2.924832006405951E-004
  0.000000000000000E+000  6.743151851984038E-003   1.00020599000257     
  0.120832285663556      -5.414412189409220E-003  0.000000000000000E+000
   3.01028906339948     
  0.936462258150449       3.162718150678633E-003  0.000000000000000E+000
  0.224392700822818       6.396053716276571E-003 -2.859911091303762E-004
  0.000000000000000E+000  6.682044825406947E-003   1.00020688759484     
  0.119813198763287      -5.295036956714620E-003  0.000000000000000E+000
   2.99758286831151     
  0.932319101600151       3.346467535361265E-003  0.000000000000000E+000
  0.230592277923961       6.341111603829879E-003 -2.789085098992576E-004
  0.000000000000000E+000  6.620020113729137E-003   1.00020766418909     
  0.118788358804856      -5.166036369088285E-003  0.000000000000000E+000
   2.98475076308003     
  0.927986251584928       3.535462227755561E-003  0.000000000000000E+000
  0.237944882182319       6.286991952647003E-003 -2.723002759372209E-004
  0.000000000000000E+000  6.559292228584223E-003   1.00020864858522     
  0.117778477004249      -5.046664272219295E-003  0.000000000000000E+000
   2.97205292369225     
  0.923457056336885       3.730240913818279E-003  0.000000000000000E+000
  0.244025842253222       6.235601987363162E-003 -2.649398243543748E-004
  0.000000000000000E+000  6.500541811717537E-003   1.00020941639678     
  0.116820319551355      -4.915396672446786E-003  0.000000000000000E+000
   2.95995674591415     
  0.918724734063985       3.928866629792209E-003  0.000000000000000E+000
  0.251466033776069       6.187387851820368E-003 -2.584522172329847E-004
  0.000000000000000E+000  6.445840069053352E-003   1.00021042838989     
  0.115921087998437      -4.797959423842592E-003  0.000000000000000E+000
   2.94855935732224     
  0.913782702004972       4.134308086652536E-003  0.000000000000000E+000
  0.258160898660890       6.142441227022434E-003 -2.509080260913522E-004
  0.000000000000000E+000  6.393349253113786E-003   1.00021131651673     
  0.115083880034654      -4.663162650570048E-003  0.000000000000000E+000
   2.93791092351859     
  0.908624062312831       4.341309162270438E-003  0.000000000000000E+000
  0.264323382785051       6.102344537845878E-003 -2.434914927058388E-004
  0.000000000000000E+000  6.345836030551717E-003   1.00021211375808     
  0.114337557035991      -4.528734792434461E-003  0.000000000000000E+000
   2.92838592800906     
  0.903242385263693       4.554834075679027E-003  0.000000000000000E+000
  0.272187295092181       6.061511417091097E-003 -2.367165957036545E-004
  0.000000000000000E+000  6.298228012794752E-003   1.00021321695375     
  0.113577142665934      -4.399588436551352E-003  0.000000000000000E+000
   2.91864671556101     
  0.897630946103148       4.770477692087010E-003  0.000000000000000E+000
  0.277918641063252       6.017701681750288E-003 -2.283982343954399E-004
  0.000000000000000E+000  6.246099916145728E-003   1.00021394571101     
  0.112761746216301      -4.244955200360424E-003  0.000000000000000E+000
   2.90816631834356     
  0.891783373400719       4.989646083122509E-003  0.000000000000000E+000
  0.286431710715306       5.974709570703153E-003 -2.216706477137780E-004
  0.000000000000000E+000  6.196380218416931E-003   1.00021517614960     
  0.111960332244073      -4.123186397747084E-003  0.000000000000000E+000
   2.89783185110049     
  0.885693421287334       5.213290243712273E-003  0.000000000000000E+000
  0.292943990330514       5.937964012044497E-003 -2.131342508344583E-004
  0.000000000000000E+000  6.151098262878955E-003   1.00021606804103     
  0.111277109824258      -3.971957931985171E-003  0.000000000000000E+000
   2.88899575607235     
  0.879354799790459       5.435549238576376E-003  0.000000000000000E+000
  0.299018698568716       5.910430013076095E-003 -2.049432464383106E-004
  0.000000000000000E+000  6.115373259514406E-003   1.00021687111891     
  0.110766493223470      -3.823162844258938E-003  0.000000000000000E+000
   2.88237676541286     
  0.872761850024891       5.661595916410732E-003  0.000000000000000E+000
  0.307962799714232       5.879903935302843E-003 -1.979475084066978E-004
  0.000000000000000E+000  6.077851443709541E-003   1.00021816602547     
  0.110199162092826      -3.686491229850923E-003  0.000000000000000E+000
   2.87499979463270     
  0.865908887614107       5.888050303986711E-003  0.000000000000000E+000
  0.313989267289799       5.840928423902901E-003 -1.884471465375444E-004
  0.000000000000000E+000  6.029375570440446E-003   1.00021893401380     
  0.109474565065762      -3.506028725945862E-003  0.000000000000000E+000
   2.86554569971494     
  0.858790596690845       6.112150921137999E-003  0.000000000000000E+000
  0.320428994032682       5.801494237848735E-003 -1.797661697392299E-004
  0.000000000000000E+000  5.981260407587966E-003   1.00021978835913     
  0.108740536802233      -3.344900876594758E-003  0.000000000000000E+000
   2.85593824089945     
  0.851402232938537       6.337426796155764E-003  0.000000000000000E+000
  0.329006231363792       5.760442082046480E-003 -1.714023904250038E-004
  0.000000000000000E+000  5.931844472471484E-003   1.00022104714665     
  0.107975802407000      -3.187753457733119E-003  0.000000000000000E+000
   2.84589341448156     
  0.843739242234269       6.559807874772471E-003  0.000000000000000E+000
  0.335229611105660       5.719148182389840E-003 -1.610283430593510E-004
  0.000000000000000E+000  5.880176525449190E-003   1.00022189941089     
  0.107207253132671      -2.996575747421037E-003  0.000000000000000E+000
   2.83576153402166     
  0.835797614343686       6.776554441764220E-003  0.000000000000000E+000
  0.341407055474292       5.683275869445786E-003 -1.516318244581021E-004
  0.000000000000000E+000  5.834907693903888E-003   1.00022277002893     
  0.106539647180987      -2.823549857924407E-003  0.000000000000000E+000
   2.82693234506459     
  0.827574033874230       6.990933322577417E-003  0.000000000000000E+000
  0.350150693636806       5.649529138223304E-003 -1.433215820726951E-004
  0.000000000000000E+000  5.792850720295999E-003   1.00022415126208     
  0.105911136311790      -2.669778883844026E-003  0.000000000000000E+000
   2.81859584318953     
  0.819065622350018       7.200829533666883E-003  0.000000000000000E+000
  0.356447401806690       5.620928388883895E-003 -1.325293749206472E-004
  0.000000000000000E+000  5.753457763804543E-003   1.00022509601089     
  0.105379825455964      -2.473388546293093E-003  0.000000000000000E+000
   2.81152907406066     
  0.810270040767068       7.398615321999188E-003  0.000000000000000E+000
  0.362550328806492       5.601651111132690E-003 -1.218744764697173E-004
  0.000000000000000E+000  5.723525587602407E-003   1.00022595031105     
  0.105023046067893      -2.276713330326533E-003  0.000000000000000E+000
   2.80677598158732     
  0.801185958372473       7.589628713596443E-003  0.000000000000000E+000
  0.371125794046293       5.581793796861770E-003 -1.131019322546522E-004
  0.000000000000000E+000  5.694895729116422E-003   1.00022723678227     
  0.104654392924147      -2.109556992497550E-003  0.000000000000000E+000
   2.80185486042409     
  0.791812627973472       7.772394067772765E-003  0.000000000000000E+000
  0.379099322633692       5.553926720925727E-003 -1.030106856790615E-004
  0.000000000000000E+000  5.656937406604789E-003   1.00022842540980     
  0.104135560099403      -1.917449055752580E-003  0.000000000000000E+000
   2.79490791216921     
  0.782150065254686       7.942422822669317E-003  0.000000000000000E+000
  0.385345104352382       5.524139496049042E-003 -9.115263004799431E-005
  0.000000000000000E+000  5.615292126097036E-003   1.00022931504041     
  0.103580648938655      -1.696834462248683E-003  0.000000000000000E+000
   2.78745543086885     
  0.772199185767239       8.095718475719276E-003  0.000000000000000E+000
  0.391831203729453       5.499059611202166E-003 -7.989959940777435E-005
  0.000000000000000E+000  5.578959210609941E-003   1.00023028957233     
  0.103113318068042      -1.488132153116847E-003  0.000000000000000E+000
   2.78116300388380     
  0.761961923922881       8.235501917519613E-003  0.000000000000000E+000
  0.399883111712143       5.474622427061795E-003 -6.977709692563750E-005
  0.000000000000000E+000  5.544399523987433E-003   1.00023158409328     
  0.102657279804037      -1.297290436999613E-003  0.000000000000000E+000
   2.77500720649657     
  0.751441078648974       8.360036325710233E-003  0.000000000000000E+000
  0.408295171353529       5.447840965011003E-003 -5.935476768114076E-005
  0.000000000000000E+000  5.507195732692144E-003   1.00023301400045     
  0.102156774306655      -1.102486958963946E-003  0.000000000000000E+000
   2.76823282313346     
  0.740640446574066       8.467539394565621E-003  0.000000000000000E+000
  0.415007361226799       5.425624033433555E-003 -4.700967695742731E-005
  0.000000000000000E+000  5.472633710390982E-003   1.00023420574621     
  0.101741394124421      -8.747884943247925E-004  0.000000000000000E+000
   2.76259135992354     
  0.729564815658738       8.549226778783900E-003  0.000000000000000E+000
  0.421302763439371       5.411088549460099E-003 -3.440429197765909E-005
  0.000000000000000E+000  5.445492841437758E-003   1.00023537612965     
  0.101469390445954      -6.403873259894406E-004  0.000000000000000E+000
   2.75888443313696     
  0.718220157151689       8.609815858319162E-003  0.000000000000000E+000
  0.429150073124219       5.397592067825326E-003 -2.331036741891160E-005
  0.000000000000000E+000  5.420902435244237E-003   1.00023686740633     
  0.101215865446753      -4.314755697543833E-004  0.000000000000000E+000
   2.75541965399939     
  0.706613454876314       8.648074977020741E-003  0.000000000000000E+000
  0.436566361569248       5.381929322052528E-003 -1.211591070253966E-005
  0.000000000000000E+000  5.394045232755067E-003   1.00023827952710     
  0.100920433559023      -2.212900949716883E-004  0.000000000000000E+000
   2.75136736297207     
  0.694752788406665       8.662372544331720E-003  0.000000000000000E+000
  0.444155139991608       5.367157886283459E-003 -7.514438720343960E-007
  0.000000000000000E+000  5.367909330155493E-003   1.00023972462714     
  0.100640286043382      -9.165128713877784E-006  0.000000000000000E+000
   2.74750426848889     
  0.682647343539202       8.651157664054129E-003  0.000000000000000E+000
  0.451841799204431       5.355440145226120E-003  1.134028100566943E-005
  0.000000000000000E+000  5.366780426231789E-003   1.00024118769052     
  0.100416136547127       2.158684256188532E-004  0.000000000000000E+000
   2.74439028289103     
  0.670307422204054       8.610315629881678E-003  0.000000000000000E+000
  0.458428512084311       5.348765056892201E-003  2.428089637392631E-005
  0.000000000000000E+000  5.373045953266127E-003   1.00024246366441     
  0.100285327653126       4.563613675696063E-004  0.000000000000000E+000
   2.74253988953520     
  0.657744432187388       8.537819516044324E-003  0.000000000000000E+000
  0.465133168449938       5.346854820554153E-003  3.668216784381009E-005
  0.000000000000000E+000  5.383536988397963E-003   1.00024378732249     
  0.100242850308339       6.879625860430544E-004  0.000000000000000E+000
   2.74188991853040     
  0.644970813927204       8.436245338104848E-003  0.000000000000000E+000
  0.472644941660747       5.345997864176724E-003  4.835280206836462E-005
  0.000000000000000E+000  5.394350666245089E-003   1.00024527976743     
  0.100219150528655       9.068708234033331E-004  0.000000000000000E+000
   2.74148967664028     
  0.632000051176599       8.304733450058579E-003  0.000000000000000E+000
  0.479966302296134       5.344963783307207E-003  6.002483725535391E-005
  0.000000000000000E+000  5.404988620562561E-003   1.00024675040494     
  0.100190975669344       1.125420811784565E-003  0.000000000000000E+000
   2.74101870364480     
  0.618846621299056       8.142643113908310E-003  0.000000000000000E+000
  0.487313951312672       5.344800540951019E-003  7.165993064756034E-005
  0.000000000000000E+000  5.416460471598580E-003   1.00024823756563     
  0.100177929380227       1.343078674003066E-003  0.000000000000000E+000
   2.74074459241365     
  0.605525942452643       7.949576021555563E-003  0.000000000000000E+000
  0.494873283570541       5.345405707875529E-003  8.320760976705542E-005
  0.000000000000000E+000  5.428613317642585E-003   1.00024978204561     
  0.100178052144210       1.559289033043312E-003  0.000000000000000E+000
   2.74064003121393     
  0.592054310759683       7.725396929789890E-003  0.000000000000000E+000
  0.502699855327364       5.345808595615138E-003  9.472860312458445E-005
  0.000000000000000E+000  5.440537198739722E-003   1.00025139645073     
  0.100173051203353       1.775069864166268E-003  0.000000000000000E+000
   2.74045363240785     
  0.578448841139469       7.469587338919363E-003  0.000000000000000E+000
  0.509698865422251       5.347307036416249E-003  1.067287370622829E-004
  0.000000000000000E+000  5.454035773478532E-003   1.00025287704336     
  0.100186882771138       1.998946151536024E-003  0.000000000000000E+000
   2.74050938554958     
  0.564727426131715       7.179798545920949E-003  0.000000000000000E+000
  0.516916753168971       5.352974456832502E-003  1.183192387246594E-004
  0.000000000000000E+000  5.471293695557162E-003   1.00025440666634     
  0.100277252616050       2.214281816165654E-003  0.000000000000000E+000
   2.74159390982314     
  0.550908452145140       6.860707846468249E-003  0.000000000000000E+000
  0.525021904863706       5.362840433447141E-003  1.289120509618918E-004
  0.000000000000000E+000  5.491752484409033E-003   1.00025610485876     
  0.100444307221643       2.411124593507503E-003  0.000000000000000E+000
   2.74369898754094     
  0.537010910895377       6.513416561857800E-003  0.000000000000000E+000
  0.532873148754334       5.375925837580708E-003  1.392047898553161E-004
  0.000000000000000E+000  5.515130627436024E-003   1.00025774479949     
  0.100669307856144       2.602375656723555E-003  0.000000000000000E+000
   2.74656357636587     
  0.523054228165777       6.139328491792367E-003  0.000000000000000E+000
  0.540801173525324       5.392506802245966E-003  1.491558469427005E-004
  0.000000000000000E+000  5.541662649188667E-003   1.00025936347098     
  0.100958103204346       2.787001487140866E-003  0.000000000000000E+000
   2.75027339568878     
  0.509058155752480       5.740143054580419E-003  0.000000000000000E+000
  0.548753355126564       5.412953606338090E-003  1.587259109532279E-004
  0.000000000000000E+000  5.571679517291318E-003   1.00026094786693     
  0.101317917247624       2.964220916286699E-003  0.000000000000000E+000
   2.75492618902074     
  0.495042659692362       5.317842972884984E-003  0.000000000000000E+000
  0.556845530330520       5.437743434693510E-003  1.678799983266671E-004
  0.000000000000000E+000  5.605623433020178E-003   1.00026250293732     
  0.101757686006776       3.133394929742725E-003  0.000000000000000E+000
   2.76063756589356     
  0.481027806142041       4.874676585191666E-003  0.000000000000000E+000
  0.565167203509873       5.466425801197158E-003  1.765540949072269E-004
  0.000000000000000E+000  5.642979896104384E-003   1.00026401547483     
  0.102268975667492       3.293814517252552E-003  0.000000000000000E+000
   2.76728625044653     
  0.467033646316841       4.413134998349662E-003  0.000000000000000E+000
  0.573790916777398       5.496146714410110E-003  1.846334481734774E-004
  0.000000000000000E+000  5.680780162583588E-003   1.00026549583191     
  0.102797730299756       3.444411106709423E-003  0.000000000000000E+000
   2.77412736914171     
  0.453080108148714       3.935745123473622E-003  0.000000000000000E+000
  0.582386561804014       5.523122187459695E-003  1.921766865647345E-004
  0.000000000000000E+000  5.715298874024430E-003   1.00026692843963     
  0.103271782880182       3.585952069844735E-003  0.000000000000000E+000
   2.78016990600461     
  0.439186917314490       3.444124449314979E-003  0.000000000000000E+000
  0.591642028903607       5.544527034685585E-003  1.985349664777474E-004
  0.000000000000000E+000  5.743062001163332E-003   1.00026845119504     
  0.103639033304413       3.706132576232761E-003  0.000000000000000E+000
   2.78472375131505     
  0.425373323286012       2.943537917647252E-003  0.000000000000000E+000
  0.602601814228592       5.557689226405232E-003  2.032584013528834E-004
  0.000000000000000E+000  5.760947627758115E-003   1.00027028612685     
  0.103851143917342       3.796405579345087E-003  0.000000000000000E+000
   2.78716549364708     
  0.411658191042757       2.437221773305309E-003  0.000000000000000E+000
  0.614687414801438       5.561913206829821E-003  2.091815523100380E-004
  0.000000000000000E+000  5.771094759139860E-003   1.00027236807547     
  0.103891800250213       3.908230475224793E-003  0.000000000000000E+000
   2.78726146560634     
  0.398060300010423       1.916233981970908E-003  0.000000000000000E+000
  0.626099008746905       5.559441205494905E-003  2.227888597499564E-004
  0.000000000000000E+000  5.782230065244862E-003   1.00027435713596     
  0.103791984988575       4.162620268849747E-003  0.000000000000000E+000
   2.78534552517985     
  0.384598635456386       1.352902573853140E-003  0.000000000000000E+000
  0.635909426064927       5.550923083038041E-003  2.464098914191810E-004
  0.000000000000000E+000  5.797332974457222E-003   1.00027609036955     
  0.103556083504263       4.602890573102943E-003  0.000000000000000E+000
   2.78140919264168     
  0.371291267288200       7.281164213263902E-004  0.000000000000000E+000
  0.644151046947400       5.539377593824302E-003  2.746928824438628E-004
  0.000000000000000E+000  5.814070476268165E-003   1.00027758096818     
  0.103246112262042       5.126140699777642E-003  0.000000000000000E+000
   2.77631679268346     
  0.358154780898738       4.178473641569574E-005  0.000000000000000E+000
  0.652767011885089       5.530887867816584E-003  3.027585354423634E-004
  0.000000000000000E+000  5.833646403258948E-003   1.00027924705894     
  0.102984230486175       5.641751787833681E-003  0.000000000000000E+000
   2.77177400337055     
  0.345204555188213      -6.996594131643285E-004  0.000000000000000E+000
  0.660591358064494       5.529106883523279E-003  3.313616325454103E-004
  0.000000000000000E+000  5.860468516068690E-003   1.00028087385540     
  0.102836221385169       6.165341071544702E-003  0.000000000000000E+000
   2.76864854504785     
  0.332455505085775      -1.498146808410845E-003  0.000000000000000E+000
  0.667333564699447       5.534838368939496E-003  3.590382196620400E-004
  0.000000000000000E+000  5.893876588601536E-003   1.00028236502062     
  0.102818174359642       6.669981539394105E-003  0.000000000000000E+000
   2.76715428724260     
  0.319920537181743      -2.339667901782980E-003  0.000000000000000E+000
  0.675495223181542       5.544420754292214E-003  3.831479923767578E-004
  0.000000000000000E+000  5.927568746668972E-003   1.00028415395497     
  0.102867614186032       7.108556209645386E-003  0.000000000000000E+000
   2.76648610569205     
  0.307611656831778      -3.214917519367286E-003  0.000000000000000E+000
  0.684386705893530       5.553610444850102E-003  4.049227266703269E-004
  0.000000000000000E+000  5.958533171520428E-003   1.00028605105120     
  0.102904054484112       7.503360347512089E-003  0.000000000000000E+000
   2.76555357160023     
  0.295539909591286      -4.117285986877651E-003  0.000000000000000E+000
  0.693324447431223       5.561629346685049E-003  4.248381569992710E-004
  0.000000000000000E+000  5.986467503684320E-003   1.00028790124145     
  0.102910802127851       7.861951318474837E-003  0.000000000000000E+000
   2.76410301623912     
  0.283715218424319      -5.040365564571752E-003  0.000000000000000E+000
  0.702292041116607       5.568885874124285E-003  4.429201785633813E-004
  0.000000000000000E+000  6.011806052687666E-003   1.00028961840829     
  0.102894868322605       8.184934784686643E-003  0.000000000000000E+000
   2.76221691605854     
  0.272146384621058      -5.978022424434283E-003  0.000000000000000E+000
  0.710891799778437       5.576532685206968E-003  4.603270678147347E-004
  0.000000000000000E+000  6.036859753021703E-003   1.00029113447996     
  0.102875066638618       8.493135872158223E-003  0.000000000000000E+000
   2.76013110870774     
  0.260841459952367      -6.928699530984975E-003  0.000000000000000E+000
  0.719226549450923       5.586145593946158E-003  4.764160800598384E-004
  0.000000000000000E+000  6.062561674005996E-003   1.00029235433228     
  0.102881546995133       8.774631954791230E-003  0.000000000000000E+000
   2.75824752452709     
  0.249806769810523      -7.883567295849768E-003  0.000000000000000E+000