 variables = "AOA","Cl","Cd","Cdf","Cdp","Cm"
 zone
   0.00        0.6150899404        0.0312789985        0.0094840591        0.0217949394       -0.1524505327
   2.00        0.8165976244        0.0372736756        0.0097995097        0.0274741659       -0.1522685272
   4.00        1.0142596024        0.0419166720        0.0097519441        0.0321647279       -0.1516092415
   6.00        1.2051138660        0.0506761835        0.0094397870        0.0412363965       -0.1500568850
   8.00        1.3868167728        0.0613023428        0.0088850840        0.0524172588       -0.1483907186
  10.00        1.5618162066        0.0740473628        0.0081010555        0.0659463072       -0.1469409250
  12.00        1.7314240378        0.0901012816        0.0071573334        0.0829439481       -0.1461429549
  14.00        1.8954220831        0.1107085496        0.0060696981        0.1046388515       -0.1468254283
  16.00        2.0530498104        0.1362076876        0.0049254900        0.1312821976       -0.1493808291
  18.00        2.2024763045        0.1693591373        0.0037697273        0.1655894100       -0.1540993380
